# vtk DataFile Version 2.0
Hex test
ASCII
DATASET UNSTRUCTURED_GRID
POINTS 10512 float
40 -2 0
40 -1 0
42 -2 0
42 -1 0
40 -1 0
40 6.93889e-18 0
42 -1 0
42 0 0
40 -6.93889e-18 0
40 1 0
42 0 0
42 1 0
40 1 0
40 2 0
42 1 0
42 2 0
40 2 0
40 3 0
42 2 0
42 3 0
40 3 0
40 4 0
42 3 0
42 4 0
42 -6 0
42 -4 0
44 -6 0
44 -4 0
42 -4 0
42 -2 0
44 -4 0
44 -2 0
42 -2 0
42 -1 0
44 -2 0
44 -1 0
42 -1 0
42 -2.77556e-17 0
44 -1 0
44 -2.77556e-17 0
42 1.38778e-17 0
42 1 0
44 2.77556e-17 0
44 1 0
42 1 0
42 2 0
44 1 0
44 2 0
42 2 0
42 3 0
44 2 0
44 3 0
42 3 0
42 4 0
44 3 0
44 4 0
44 -18 0
44 -14.1667 0
46 -18 0
46 -14.1667 0
44 -14.1667 0
44 -12 0
46 -14.1667 0
46 -12 0
44 -12 0
44 -10 0
46 -12 0
46 -10 0
44 -10 0
44 -8 0
46 -10 0
46 -8 0
44 -8 0
44 -6 0
46 -8 0
46 -6 0
44 -6 0
44 -4 0
46 -6 0
46 -4 0
44 -4 0
44 -2 0
46 -4 0
46 -2 0
44 -2 0
44 -2.77556e-17 0
46 -2 0
46 -2.77556e-17 0
44 2.77556e-17 0
44 2 0
46 2.77556e-17 0
46 2 0
44 2 0
44 4 0
46 2 0
46 4 0
46 -18 0
46 -14.1667 0
48 -18 0
48 -14.1667 0
46 -14.1667 0
46 -12 0
48 -14.1667 0
48 -12 0
46 -12 0
46 -10 0
48 -12 0
48 -10 0
46 -10 0
46 -8 0
48 -10 0
48 -8 0
46 -8 0
46 -6 0
48 -8 0
48 -6 0
46 -6 0
46 -4 0
48 -6 0
48 -4 0
46 -4 0
46 -2 0
48 -4 0
48 -2 0
46 -2 0
46 -2.77556e-17 0
48 -2 0
48 -2.77556e-17 0
46 2.77556e-17 0
46 2 0
48 2.77556e-17 0
48 2 0
46 2 0
46 4 0
48 2 0
48 4 0
46 4 0
46 5 0
48 4 0
48 5 0
46 5 0
46 6 0
48 5 0
48 6 0
48 -18 0
48 -14.1667 0
50 -18 0
50 -14.1667 0
48 -14.1667 0
48 -12 0
50 -14.1667 0
50 -12 0
48 -12 0
48 -10 0
50 -12 0
50 -10 0
48 -10 0
48 -8 0
50 -10 0
50 -8 0
48 -8 0
48 -6 0
50 -8 0
50 -6 0
48 -6 0
48 -4 0
50 -6 0
50 -4 0
48 -4 0
48 -2 0
50 -4 0
50 -2 0
48 -2 0
48 -2.77556e-17 0
50 -2 0
50 -2.77556e-17 0
48 2.77556e-17 0
48 2 0
50 2.77556e-17 0
50 2 0
48 2 0
48 4 0
50 2 0
50 4 0
48 4 0
48 5 0
50 4 0
50 5 0
48 5 0
48 6 0
50 5 0
50 6 0
48 6 0
48 7 0
50 6 0
50 7 0
48 7 0
48 8 0
50 7 0
50 8 0
48 8 0
48 9 0
50 8 0
50 9 0
48 9 0
48 10 0
50 9 0
50 10 0
50 -18 0
50 -14.1667 0
52 -18 0
52 -14.1667 0
50 -14.1667 0
50 -12 0
52 -14.1667 0
52 -12 0
50 -12 0
50 -10 0
52 -12 0
52 -10 0
50 -10 0
50 -8 0
52 -10 0
52 -8 0
50 -8 0
50 -6 0
52 -8 0
52 -6 0
50 -6 0
50 -4 0
52 -6 0
52 -4 0
50 -4 0
50 -2 0
52 -4 0
52 -2 0
50 -2 0
50 -2.77556e-17 0
52 -2 0
52 -2.77556e-17 0
50 2.77556e-17 0
50 2 0
52 2.77556e-17 0
52 2 0
50 2 0
50 4 0
52 2 0
52 4 0
50 4 0
50 6 0
52 4 0
52 6 0
50 6 0
50 7 0
52 6 0
52 7 0
50 7 0
50 8 0
52 7 0
52 8 0
50 8 0
50 9 0
52 8 0
52 9 0
50 9 0
50 10 0
52 9 0
52 10 0
52 -18 0
52 -14.1667 0
54 -18 0
54 -14.1667 0
52 -14.1667 0
52 -12 0
54 -14.1667 0
54 -12 0
52 -12 0
52 -10 0
54 -12 0
54 -10 0
52 -10 0
52 -8 0
54 -10 0
54 -8 0
52 -8 0
52 -6 0
54 -8 0
54 -6 0
52 -6 0
52 -4 0
54 -6 0
54 -4 0
52 -4 0
52 -2 0
54 -4 0
54 -2 0
52 -2 0
52 -2.77556e-17 0
54 -2 0
54 -2.77556e-17 0
52 2.77556e-17 0
52 2 0
54 2.77556e-17 0
54 2 0
52 2 0
52 4 0
54 2 0
54 4 0
52 4 0
52 6 0
54 4 0
54 6 0
52 6 0
52 8 0
54 6 0
54 8 0
52 8 0
52 10 0
54 8 0
54 10 0
54 -18 0
54 -14.1667 0
56.1667 -18 0
56.1667 -14.1667 0
54 -14.1667 0
54 -12 0
56.1667 -14.1667 0
56.1667 -12 0
54 -12 0
54 -10 0
56.1667 -12 0
56.1667 -10 0
54 -10 0
54 -8 0
56.1667 -10 0
56.1667 -8 0
54 -8 0
54 -6 0
56.1667 -8 0
56.1667 -6 0
54 -6 0
54 -4 0
56.1667 -6 0
56.1667 -4 0
54 -4 0
54 -2 0
56.1667 -4 0
56.1667 -2 0
54 -2 0
54 -2.77556e-17 0
56.1667 -2 0
56.1667 0 0
54 2.77556e-17 0
54 2 0
56.1667 0 0
56.1667 2 0
54 2 0
54 4 0
56.1667 2 0
56.1667 4 0
54 4 0
54 6 0
56.1667 4 0
56.1667 6 0
54 6 0
54 8 0
56.1667 6 0
56.1667 8 0
54 8 0
54 10 0
56.1667 8 0
56.1667 10 0
56.1667 -18 0
56.1667 -14.1667 0
60 -18 0
60 -14.1667 0
56.1667 -14.1667 0
56.1667 -12 0
60 -14.1667 0
60 -12 0
56.1667 -12 0
56.1667 -10 0
60 -12 0
60 -10 0
56.1667 -10 0
56.1667 -8 0
60 -10 0
60 -8 0
56.1667 -8 0
56.1667 -6 0
60 -8 0
60 -6 0
56.1667 -6 0
56.1667 -4 0
60 -6 0
60 -4 0
56.1667 -4 0
56.1667 -2 0
60 -4 0
60 -2 0
56.1667 -2 0
56.1667 6.93889e-17 0
60 -2 0
60 0 0
56.1667 -1.38778e-17 0
56.1667 2 0
60 0 0
60 2 0
56.1667 2 0
56.1667 4 0
60 2 0
60 4 0
56.1667 4 0
56.1667 6 0
60 4 0
60 6 0
56.1667 6 0
56.1667 8 0
60 6 0
60 8 0
46 8 0
46 9 0
48 8 0
48 9 0
46 9 0
46 10 0
48 9 0
48 10 0
46 6 0
46 7 0
48 6 0
48 7 0
46 7 0
46 8 0
48 7 0
48 8 0
44 10 0
44 11 0
45 10 0
45 11 0
45 10 0
45 11 0
46 10 0
46 11 0
44 8 0
44 9 0
45 8 0
45 9 0
44 9 0
44 10 0
45 9 0
45 10 0
45 9 0
45 10 0
46 9 0
46 10 0
45 8 0
45 9 0
46 8 0
46 9 0
44 6 0
44 7 0
45 6 0
45 7 0
45 6 0
45 7 0
46 6 0
46 7 0
44 7 0
44 8 0
45 7 0
45 8 0
45 7 0
45 8 0
46 7 0
46 8 0
44 4 0
44 5 0
46 4 0
46 5 0
44 5 0
44 6 0
46 5 0
46 6 0
42 10 0
42 11 0
43 10 0
43 11 0
43 10 0
43 11 0
44 10 0
44 11 0
42 8 0
42 9 0
43 8 0
43 9 0
42 9 0
42 10 0
43 9 0
43 10 0
43 9 0
43 10 0
44 9 0
44 10 0
43 8 0
43 9 0
44 8 0
44 9 0
42 6 0
42 7 0
43 6 0
43 7 0
42 7 0
42 8 0
43 7 0
43 8 0
43 7 0
43 8 0
44 7 0
44 8 0
43 6 0
43 7 0
44 6 0
44 7 0
42 4 0
42 5 0
43 4 0
43 5 0
43 4 0
43 5 0
44 4 0
44 5 0
42 5 0
42 6 0
43 5 0
43 6 0
43 5 0
43 6 0
44 5 0
44 6 0
40 8 0
40 9 0
41 8 0
41 9 0
41 9 0
41 10 0
42 9 0
42 10 0
41 8 0
41 9 0
42 8 0
42 9 0
40 6 0
40 7 0
41 6 0
41 7 0
40 7 0
40 8 0
41 7 0
41 8 0
41 7 0
41 8 0
42 7 0
42 8 0
41 6 0
41 7 0
42 6 0
42 7 0
40 4 0
40 5 0
41 4 0
41 5 0
41 4 0
41 5 0
42 4 0
42 5 0
40 5 0
40 6 0
41 5 0
41 6 0
41 5 0
41 6 0
42 5 0
42 6 0
39 8 0
39 9 0
40 8 0
40 9 0
38 6 0
38 7 0
39 6 0
39 7 0
38 7 0
38 8 0
39 7 0
39 8 0
39 7 0
39 8 0
40 7 0
40 8 0
39 6 0
39 7 0
40 6 0
40 7 0
38 4 0
38 5 0
39 4 0
39 5 0
39 4 0
39 5 0
40 4 0
40 5 0
38 5 0
38 6 0
39 5 0
39 6 0
39 5 0
39 6 0
40 5 0
40 6 0
38 2 0
38 3 0
40 2 0
40 3 0
38 3 0
38 4 0
40 3 0
40 4 0
38 6.93889e-18 0
38 1 0
40 -1.38778e-17 0
40 1 0
38 1 0
38 2 0
40 1 0
40 2 0
36 6 0
36 7 0
37 6 0
37 7 0
37 6 0
37 7 0
38 6 0
38 7 0
36 4 0
36 5 0
37 4 0
37 5 0
36 5 0
36 6 0
37 5 0
37 6 0
37 5 0
37 6 0
38 5 0
38 6 0
37 4 0
37 5 0
38 4 0
38 5 0
36 3 0
36 4 0
37 3 0
37 4 0
37 3 0
37 4 0
38 3 0
38 4 0
37 2 0
37 3 0
38 2 0
38 3 0
37 1 0
37 2 0
38 1 0
38 2 0
22 -18 0
22 -14.1667 0
24 -18 0
24 -14.1667 0
22 -14.1667 0
22 -12 0
24 -14.1667 0
24 -12 0
22 -12 0
22 -10 0
24 -12 0
24 -10 0
24 -18 0
24 -14.1667 0
26 -18 0
26 -14.1667 0
24 -14.1667 0
24 -12 0
26 -14.1667 0
26 -12 0
24 -12 0
24 -10 0
26 -12 0
26 -10 0
24 -10 0
24 -8 0
26 -10 0
26 -8 0
24 -8 0
24 -6 0
26 -8 0
26 -6 0
24 -6 0
24 -4 0
26 -6 0
26 -4 0
26 -18 0
26 -14.1667 0
28 -18 0
28 -14.1667 0
26 -14.1667 0
26 -12 0
28 -14.1667 0
28 -12 0
26 -12 0
26 -10 0
28 -12 0
28 -10 0
26 -10 0
26 -8 0
28 -10 0
28 -8 0
26 -8 0
26 -6 0
28 -8 0
28 -6 0
26 -6 0
26 -4 0
28 -6 0
28 -4 0
28 -18 0
28 -14.1667 0
30 -18 0
30 -14.1667 0
28 -14.1667 0
28 -12 0
30 -14.1667 0
30 -12 0
28 -12 0
28 -10 0
30 -12 0
30 -10 0
28 -10 0
28 -8 0
30 -10 0
30 -8 0
28 -8 0
28 -6 0
30 -8 0
30 -6 0
28 -6 0
28 -4 0
30 -6 0
30 -4 0
30 -18 0
30 -14.1667 0
32 -18 0
32 -14.1667 0
30 -14.1667 0
30 -12 0
32 -14.1667 0
32 -12 0
30 -12 0
30 -10 0
32 -12 0
32 -10 0
30 -10 0
30 -8 0
32 -10 0
32 -8 0
30 -8 0
30 -6 0
32 -8 0
32 -6 0
30 -6 0
30 -4 0
32 -6 0
32 -4 0
32 -18 0
32 -14.1667 0
34 -18 0
34 -14.1667 0
32 -14.1667 0
32 -12 0
34 -14.1667 0
34 -12 0
32 -12 0
32 -10 0
34 -12 0
34 -10 0
32 -10 0
32 -8 0
34 -10 0
34 -8 0
32 -8 0
32 -6 0
34 -8 0
34 -6 0
32 -6 0
32 -4 0
34 -6 0
34 -4 0
34 -18 0
34 -14.1667 0
36 -18 0
36 -14.1667 0
34 -14.1667 0
34 -12 0
36 -14.1667 0
36 -12 0
34 -12 0
34 -10 0
36 -12 0
36 -10 0
34 -10 0
34 -8 0
36 -10 0
36 -8 0
34 -8 0
34 -6 0
36 -8 0
36 -6 0
34 -6 0
34 -4 0
36 -6 0
36 -4 0
36 -18 0
36 -14.1667 0
38 -18 0
38 -14.1667 0
36 -14.1667 0
36 -12 0
38 -14.1667 0
38 -12 0
36 -12 0
36 -10 0
38 -12 0
38 -10 0
36 -10 0
36 -8 0
38 -10 0
38 -8 0
36 -8 0
36 -6 0
38 -8 0
38 -6 0
36 -6 0
36 -4 0
38 -6 0
38 -4 0
38 -18 0
38 -14.1667 0
40 -18 0
40 -14.1667 0
38 -14.1667 0
38 -12 0
40 -14.1667 0
40 -12 0
38 -12 0
38 -10 0
40 -12 0
40 -10 0
38 -10 0
38 -8 0
40 -10 0
40 -8 0
38 -8 0
38 -6 0
40 -8 0
40 -6 0
38 -6 0
38 -4 0
40 -6 0
40 -4 0
38 -4 0
38 -3 0
40 -4 0
40 -3 0
38 -3 0
38 -2 0
40 -3 0
40 -2 0
40 -18 0
40 -14.1667 0
42 -18 0
42 -14.1667 0
40 -14.1667 0
40 -12 0
42 -14.1667 0
42 -12 0
40 -12 0
40 -10 0
42 -12 0
42 -10 0
40 -10 0
40 -8 0
42 -10 0
42 -8 0
40 -8 0
40 -6 0
42 -8 0
42 -6 0
40 -6 0
40 -4 0
42 -6 0
42 -4 0
40 -4 0
40 -3 0
42 -4 0
42 -3 0
40 -3 0
40 -2 0
42 -3 0
42 -2 0
42 -18 0
42 -14.1667 0
44 -18 0
44 -14.1667 0
42 -14.1667 0
42 -12 0
44 -14.1667 0
44 -12 0
42 -12 0
42 -10 0
44 -12 0
44 -10 0
42 -10 0
42 -8 0
44 -10 0
44 -8 0
42 -8 0
42 -6 0
44 -8 0
44 -6 0
38 -2 0
38 -1 0
40 -2 0
40 -1 0
38 -1 0
38 2.77556e-17 0
40 -1 0
40 -2.77556e-17 0
36 2 0
36 3 0
37 2 0
37 3 0
36 1.38778e-17 0
36 1 0
37 8.67362e-18 0
37 1 0
36 1 0
36 2 0
37 1 0
37 2 0
37 -8.67362e-18 0
37 1 0
38 2.42861e-17 0
38 1 0
36 -2 0
36 -1 0
37 -2 0
37 -1 0
37 -2 0
37 -1 0
38 -2 0
38 -1 0
36 -1 0
36 0 0
37 -1 0
37 1.9082e-17 0
37 -1 0
37 1.9082e-17 0
38 -1 0
38 1.04083e-17 0
36 -4 0
36 -3 0
38 -4 0
38 -3 0
36 -3 0
36 -2 0
38 -3 0
38 -2 0
34 4 0
34 5 0
35 4 0
35 5 0
35 4 0
35 5 0
36 4 0
36 5 0
34 2 0
34 3 0
35 2 0
35 3 0
34 3 0
34 4 0
35 3 0
35 4 0
35 3 0
35 4 0
36 3 0
36 4 0
35 2 0
35 3 0
36 2 0
36 3 0
34 1.38778e-17 0
34 1 0
35 2.42861e-17 0
35 1 0
34 1 0
34 2 0
35 1 0
35 2 0
35 1 0
35 2 0
36 1 0
36 2 0
35 2.42861e-17 0
35 1 0
36 1.73472e-17 0
36 1 0
34 -2 0
34 -1 0
35 -2 0
35 -1 0
34 -1 0
34 -2.77556e-17 0
35 -1 0
35 1.04083e-17 0
35 -1 0
35 4.16334e-17 0
36 -1 0
36 3.46945e-18 0
35 -2 0
35 -1 0
36 -2 0
36 -1 0
34 -4 0
34 -3 0
35 -4 0
35 -3 0
35 -4 0
35 -3 0
36 -4 0
36 -3 0
34 -3 0
34 -2 0
35 -3 0
35 -2 0
35 -3 0
35 -2 0
36 -3 0
36 -2 0
32 4 0
32 5 0
33 4 0
33 5 0
32 5 0
32 6 0
33 5 0
33 6 0
33 5 0
33 6 0
34 5 0
34 6 0
33 4 0
33 5 0
34 4 0
34 5 0
32 2 0
32 3 0
33 2 0
33 3 0
32 3 0
32 4 0
33 3 0
33 4 0
33 3 0
33 4 0
34 3 0
34 4 0
33 2 0
33 3 0
34 2 0
34 3 0
32 1.38778e-17 0
32 1 0
33 1.38778e-17 0
33 1 0
32 1 0
32 2 0
33 1 0
33 2 0
33 1 0
33 2 0
34 1 0
34 2 0
33 1.38778e-17 0
33 1 0
34 1.38778e-17 0
34 1 0
32 -2 0
32 -1 0
33 -2 0
33 -1 0
32 -1 0
32 -2.77556e-17 0
33 -1 0
33 -1.38778e-17 0
33 -1 0
33 -1.38778e-17 0
34 -1 0
34 -1.38778e-17 0
33 -2 0
33 -1 0
34 -2 0
[...]
POINT_DATA 10512
SCALARS phi float 1
LOOKUP_TABLE default
-6.18241e-05
-7.00441e-05
1.7322e-06
1.55802e-05
-7.00441e-05
-2.47734e-05
1.55802e-05
4.76438e-05
-2.47734e-05
2.12509e-05
4.76438e-05
-3.52126e-05
2.12509e-05
5.73195e-05
-3.52126e-05
-4.62615e-05
5.73195e-05
-4.42885e-05
-4.62615e-05
0.000174724
-4.42885e-05
-0.000424142
0.000174724
-6.42971e-06
8.63507e-08
-2.56063e-07
4.311e-07
-6.96402e-07
-2.56065e-07
1.7322e-06
-6.96401e-07
-2.35453e-06
1.7322e-06
1.55802e-05
-2.35453e-06
-1.4428e-05
1.55802e-05
4.76438e-05
-1.4428e-05
-1.34609e-05
4.76438e-05
-3.52126e-05
-1.34609e-05
1.45366e-05
-3.52126e-05
-4.62615e-05
1.45366e-05
2.83921e-05
-4.62615e-05
0.000174724
2.83921e-05
9.52259e-07
0.000174724
-6.42974e-06
9.52259e-07
1.62912e-05
5.51045e-08
5.16876e-08
-2.28413e-09
5.55401e-10
5.16877e-08
-7.69191e-08
5.55401e-10
-7.3102e-10
-7.69191e-08
1.26675e-07
-7.31026e-10
1.43348e-09
1.26675e-07
-2.27275e-07
1.43348e-09
-1.44899e-09
-2.27275e-07
4.311e-07
-1.44899e-09
9.43271e-09
4.311e-07
-6.96402e-07
9.43273e-09
-7.50904e-08
-6.96401e-07
-2.35453e-06
-7.50904e-08
2.06749e-06
-2.35453e-06
-1.34609e-05
2.06749e-06
5.60756e-06
-1.34609e-05
2.83921e-05
5.60757e-06
-8.3591e-06
2.83921e-05
1.62912e-05
-8.3591e-06
-2.19827e-06
-2.28413e-09
5.55398e-10
-5.64315e-08
-5.59373e-08
5.55404e-10
-7.31025e-10
-5.59373e-08
9.10659e-08
-7.31026e-10
1.43347e-09
9.10659e-08
-1.54974e-07
1.43348e-09
-1.44899e-09
-1.54974e-07
2.81283e-07
-1.44899e-09
9.43271e-09
2.81283e-07
-5.24986e-07
9.43271e-09
-7.50905e-08
-5.24986e-07
1.01053e-06
-7.50906e-08
2.06749e-06
1.01053e-06
-2.91514e-06
2.06749e-06
5.60756e-06
-2.91514e-06
3.91386e-07
5.60757e-06
-8.3591e-06
3.91387e-07
-1.19024e-06
-8.3591e-06
-2.19827e-06
-1.19024e-06
3.52989e-06
-2.19827e-06
-3.23716e-05
3.52989e-06
-1.34555e-05
-3.23716e-05
6.44598e-06
-1.34555e-05
2.99179e-06
-5.64315e-08
-5.59373e-08
2.44049e-08
2.41069e-08
-5.59373e-08
9.10659e-08
2.41069e-08
-3.90779e-08
9.10659e-08
-1.54974e-07
-3.90779e-08
6.65382e-08
-1.54974e-07
2.81283e-07
6.65381e-08
-1.21177e-07
2.81283e-07
-5.24986e-07
-1.21177e-07
2.27624e-07
-5.24986e-07
1.01053e-06
2.27624e-07
-4.41599e-07
1.01053e-06
-2.91514e-06
-4.41599e-07
1.37912e-06
-2.91514e-06
3.91386e-07
1.37912e-06
1.0184e-07
3.91386e-07
-1.19024e-06
1.0184e-07
1.72872e-07
-1.19024e-06
3.52989e-06
1.72872e-07
-4.84639e-06
3.52989e-06
-1.34555e-05
-4.84639e-06
-1.07845e-06
-1.34555e-05
2.99178e-06
-1.07845e-06
-7.03123e-07
2.99179e-06
-3.08623e-05
-7.03123e-07
-8.60657e-06
-3.08623e-05
-2.53781e-05
-8.60657e-06
-1.42207e-05
-2.53781e-05
-2.65692e-05
-1.42207e-05
-2.17662e-05
-2.65692e-05
4.97465e-06
-2.17662e-05
8.92096e-06
2.44049e-08
2.41069e-08
-9.11702e-09
-8.95338e-09
2.41069e-08
-3.90779e-08
-8.95338e-09
1.44707e-08
-3.90779e-08
6.65381e-08
1.44707e-08
-2.47315e-08
6.65382e-08
-1.21177e-07
-2.47315e-08
4.49677e-08
-1.21177e-07
2.27624e-07
4.49677e-08
-8.46555e-08
2.27624e-07
-4.41599e-07
-8.46555e-08
1.67005e-07
-4.41599e-07
1.37912e-06
1.67005e-07
-6.15208e-07
1.37912e-06
1.0184e-07
-6.15208e-07
-3.10419e-07
1.0184e-07
1.72872e-07
-3.10419e-07
3.86701e-07
1.72872e-07
-4.84639e-06
3.86701e-07
1.343e-06
-4.84639e-06
-7.03123e-07
1.343e-06
2.37774e-07
-7.03123e-07
-8.60657e-06
2.37774e-07
2.80387e-07
-8.60657e-06
-1.42207e-05
2.80387e-07
1.10901e-07
-1.42207e-05
-2.17662e-05
1.10901e-07
-2.33676e-06
-2.17662e-05
8.92096e-06
-2.33676e-06
-1.25216e-05
-9.11702e-09
-8.95338e-09
5.50884e-09
5.39552e-09
-8.95338e-09
1.44708e-08
5.39552e-09
-8.73222e-09
1.44707e-08
-2.47315e-08
-8.73222e-09
1.49158e-08
-2.47315e-08
4.49677e-08
1.49158e-08
-2.71592e-08
4.49677e-08
-8.46555e-08
-2.71591e-08
5.11369e-08
-8.46555e-08
1.67005e-07
5.11369e-08
-1.00645e-07
1.67005e-07
-6.15208e-07
-1.00645e-07
3.6654e-07
-6.15208e-07
-3.10419e-07
3.6654e-07
1.66656e-07
-3.10419e-07
3.86701e-07
1.66655e-07
-2.05804e-07
3.86701e-07
1.343e-06
-2.05804e-07
-8.50342e-07
1.343e-06
2.37774e-07
-8.50342e-07
3.60344e-08
2.37774e-07
1.10901e-07
3.60343e-08
-5.00161e-07
1.10901e-07
-1.25216e-05
-5.00161e-07
5.22953e-06
5.50884e-09
5.39552e-09
-3.4103e-09
-3.33895e-09
5.39552e-09
-8.73223e-09
-3.33895e-09
5.40052e-09
-8.73222e-09
1.49158e-08
5.40052e-09
-9.24319e-09
1.49158e-08
-2.71592e-08
-9.24319e-09
1.67445e-08
-2.71591e-08
5.11369e-08
1.67445e-08
-3.17743e-08
5.11369e-08
-1.00645e-07
-3.17743e-08
6.25871e-08
-1.00645e-07
3.6654e-07
6.25871e-08
-2.28073e-07
3.6654e-07
1.66655e-07
-2.28073e-07
-9.89049e-08
1.66655e-07
-2.05804e-07
-9.89049e-08
1.21203e-07
-2.05804e-07
-8.50342e-07
1.21203e-07
5.41102e-07
-8.50342e-07
3.60343e-08
5.41102e-07
-4.29223e-08
3.60342e-08
-5.00161e-07
-4.29224e-08
4.1195e-07
-5.00161e-07
5.22953e-06
4.1195e-07
-3.34311e-06
-3.4103e-09
-3.33895e-09
-3.28988e-09
-3.12245e-09
-3.33895e-09
5.40052e-09
-3.12245e-09
5.05338e-09
5.40052e-09
-9.24319e-09
5.05338e-09
-8.65774e-09
-9.24319e-09
1.67445e-08
-8.65774e-09
1.58591e-08
1.67445e-08
-3.17743e-08
1.58591e-08
-2.98867e-08
-3.17743e-08
6.25872e-08
-2.98867e-08
5.85636e-08
6.25872e-08
-2.28073e-07
5.85636e-08
-2.16591e-07
-2.28073e-07
-9.89049e-08
-2.16591e-07
-8.16537e-08
-9.89049e-08
1.21203e-07
-8.16537e-08
1.1461e-07
1.21203e-07
5.41102e-07
1.1461e-07
5.60812e-07
5.41102e-07
-4.29223e-08
5.60812e-07
-1.00968e-07
-4.29224e-08
4.1195e-07
-1.00968e-07
6.31564e-07
-3.15669e-06
-1.12353e-05
-2.53781e-05
-2.65692e-05
-1.12353e-05
2.69872e-06
-2.65692e-05
4.97464e-06
6.44598e-06
3.60688e-06
2.99179e-06
-3.08623e-05
3.60689e-06
-3.15669e-06
-3.08623e-05
-2.53781e-05
0.000235349
0.00219954
-0.000111295
-0.00122881
-0.000111295
-0.00122881
2.69869e-06
-0.000187288
-3.29397e-06
-4.34592e-05
2.60908e-06
-8.19183e-05
-4.34592e-05
0.000235349
-8.19182e-05
-0.000111295
-8.19182e-05
-0.000111295
-1.12353e-05
2.69869e-06
2.60908e-06
-8.19182e-05
-3.15669e-06
-1.12353e-05
-1.0229e-05
2.37091e-05
-4.83339e-05
2.3843e-05
-4.83339e-05
2.3843e-05
6.44598e-06
3.60688e-06
2.37091e-05
-3.29397e-06
2.3843e-05
2.60908e-06
2.3843e-05
2.60908e-06
3.60689e-06
-3.15669e-06
1.62912e-05
8.20727e-05
-2.19827e-06
-3.23716e-05
8.20727e-05
-1.0229e-05
-3.23716e-05
6.44598e-06
0.00222314
0.0133525
-0.000514344
-0.00493407
-0.000514344
-0.00493407
0.000235349
0.00219954
-0.000228666
0.000332567
4.88856e-06
-5.57973e-05
0.000332567
0.00222314
-5.57972e-05
-0.000514344
-5.57972e-05
-0.000514344
-4.34592e-05
0.000235349
4.88856e-06
-5.57973e-05
-3.29397e-06
-4.34592e-05
-7.97096e-05
-0.000352957
8.59225e-05
-2.28538e-05
-0.000352957
-0.000228666
-2.28538e-05
4.88856e-06
-2.28538e-05
4.88856e-06
2.3709e-05
-3.29397e-06
8.59225e-05
-2.28538e-05
-1.0229e-05
2.37091e-05
-6.42972e-06
-5.01501e-05
4.77919e-05
-6.77941e-05
4.77919e-05
-6.77941e-05
1.62912e-05
8.20727e-05
-5.01502e-05
-7.97096e-05
-6.77941e-05
8.59225e-05
-6.77941e-05
8.59225e-05
8.20727e-05
-1.0229e-05
0.00176914
0.0208602
-0.000501234
0.00419058
0.00419058
0.0146156
0.000332567
0.00222314
-0.000501234
0.00419058
-0.000228666
0.000332567
-0.00139976
-0.00105127
-0.000126019
-0.00029626
-0.00105127
0.00176914
-0.00029626
-0.000501234
-0.00029626
-0.000501234
-0.000352957
-0.000228666
-0.000126019
-0.00029626
-7.97096e-05
-0.000352957
-0.000424141
-0.000995516
-0.000213662
0.00029457
-0.000213662
0.00029457
-6.42969e-06
-5.01501e-05
-0.000995516
-0.00139976
0.00029457
-0.000126019
0.00029457
-0.000126019
-5.01501e-05
-7.97096e-05
0.00847612
0.0626967
0.00176914
0.0208602
-0.000793993
-0.00336449
-0.00014314
-0.00337246
-0.00336449
0.0134631
-0.00337246
0.00847612
-0.00337246
0.00847612
-0.00105127
0.00176914
-0.00014314
-0.00337246
-0.00139976
-0.00105127
0.000313936
-0.000748316
-0.000389763
-0.00315336
-0.000389763
-0.00315336
-0.000424142
-0.000995516
-0.000748316
-0.000793993
-0.00315336
-0.00014314
-0.00315336
-0.00014314
-0.000995516
-0.00139976
4.75521e-05
-1.06956e-05
5.73195e-05
-4.42884e-05
-1.06955e-05
0.000313936
-4.42884e-05
-0.000424142
4.76194e-06
-3.97726e-05
-2.47734e-05
2.12509e-05
-3.97726e-05
4.75521e-05
2.12509e-05
5.73195e-05
-0.00391369
-0.000612393
0.00317861
-0.00110086
0.00317861
-0.00110086
-0.000793993
-0.00336449
-0.000533396
-0.00819766
0.000793673
0.00357305
-0.00819766
-0.00391369
0.00357305
0.00317861
0.00357305
0.00317861
-0.000748317
-0.000793993
0.000793673
0.00357305
0.000313937
-0.000748317
-0.00121967
-0.000533397
0.000408975
0.000793673
0.000408975
0.000793673
-1.06954e-05
0.000313936
4.026e-05
0.000408975
4.75521e-05
-1.06955e-05
-7.58037e-05
4.02599e-05
-3.97726e-05
4.75521e-05
4.57254e-07
5.21991e-07
-2.84094e-08
-6.13102e-08
5.21991e-07
-6.3686e-07
-6.13102e-08
4.94791e-08
-6.3686e-07
8.68636e-07
4.9479e-08
-3.23142e-08
-2.84094e-08
-6.13101e-08
-9.87398e-07
-9.57103e-07
-6.13101e-08
4.9479e-08
-9.57103e-07
1.57759e-06
4.94791e-08
-3.23145e-08
1.57759e-06
-2.65843e-06
-3.23143e-08
3.63337e-08
-2.65843e-06
4.76713e-06
3.6334e-08
1.51218e-06
4.76713e-06
-3.95984e-06
1.51218e-06
-4.57703e-06
-3.95984e-06
-1.0815e-05
-9.87398e-07
-9.57103e-07
3.02592e-06
3.1503e-06
-9.57103e-07
1.57759e-06
3.1503e-06
-5.22792e-06
1.57759e-06
-2.65843e-06
-5.22792e-06
8.93558e-06
-2.65843e-06
4.76713e-06
8.93558e-06
-1.59564e-05
4.76713e-06
-3.95985e-06
-1.59564e-05
1.83535e-05
-3.95984e-06
-1.0815e-05
1.83535e-05
8.01853e-06
3.02592e-06
3.1503e-06
1.21862e-06
1.48766e-06
3.1503e-06
-5.22792e-06
1.48766e-06
-2.85775e-06
-5.22792e-06
8.93558e-06
-2.85775e-06
6.52158e-06
8.93558e-06
-1.59564e-05
6.52159e-06
-1.48158e-05
-1.59564e-05
1.83535e-05
-1.48158e-05
1.07713e-05
1.83535e-05
8.01852e-06
1.07713e-05
-1.93654e-05
1.21862e-06
1.48766e-06
1.68379e-05
1.67562e-05
1.48766e-06
-2.85775e-06
1.67562e-05
-2.70105e-05
-2.85775e-06
6.52158e-06
-2.70105e-05
4.63019e-05
6.52158e-06
-1.48158e-05
4.63019e-05
-8.47945e-05
-1.48158e-05
1.07713e-05
-8.47945e-05
8.78434e-05
1.07713e-05
-1.93654e-05
8.78434e-05
1.97857e-05
1.68379e-05
1.67562e-05
-2.98647e-06
-2.72838e-06
1.67562e-05
-2.70105e-05
-2.72838e-06
4.47426e-06
-2.70105e-05
4.63019e-05
4.47426e-06
-7.77433e-06
4.63019e-05
-8.47945e-05
-7.77433e-06
1.46224e-05
-8.47945e-05
8.78434e-05
1.46224e-05
-1.42792e-05
8.78433e-05
1.97858e-05
-1.42792e-05
2.91191e-05
-2.98647e-06
-2.72838e-06
1.36795e-06
1.22743e-06
-2.72838e-06
4.47426e-06
1.22743e-06
-1.99587e-06
4.47426e-06
-7.77433e-06
-1.99587e-06
3.43866e-06
-7.77433e-06
1.46224e-05
3.43866e-06
-6.44532e-06
1.46224e-05
-1.42792e-05
-6.44532e-06
6.57512e-06
-1.42792e-05
2.91191e-05
6.57513e-06
6.25364e-06
1.36795e-06
1.22743e-06
-7.15413e-07
-6.88967e-07
1.22743e-06
-1.99587e-06
-6.88966e-07
1.031e-06
-1.99587e-06
3.43866e-06
1.031e-06
-1.7336e-06
3.43866e-06
-6.44532e-06
-1.7336e-06
3.14775e-06
-6.44532e-06
6.57512e-06
3.14775e-06
-3.11487e-06
6.57512e-06
6.25364e-06
-3.11487e-06
-5.26984e-06
-7.15413e-07
-6.88967e-07
4.21093e-07
3.76804e-07
-6.88966e-07
1.031e-06
3.76804e-07
-6.02124e-07
1.031e-06
-1.7336e-06
-6.02124e-07
1.00325e-06
-1.7336e-06
3.14775e-06
1.00325e-06
-1.77949e-06
3.14775e-06
-3.11487e-06
-1.77949e-06
4.88246e-06
-3.11487e-06
-5.26984e-06
4.88246e-06
-1.29619e-05
-5.26984e-06
-7.95551e-05
-1.29619e-05
-2.85151e-05
-7.95551e-05
-5.22438e-05
-2.85151e-05
-6.18241e-05
4.21093e-07
3.76803e-07
1.12832e-08
3.29215e-08
3.76803e-07
-6.02125e-07
3.29215e-08
-2.33937e-08
-6.02125e-07
1.00325e-06
-2.33937e-08
2.43668e-08
1.00325e-06
-1.77949e-06
2.43669e-08
-1.247e-08
-1.77949e-06
4.88246e-06
-1.247e-08
8.63507e-08
4.88246e-06
-1.29619e-05
8.63506e-08
-2.56064e-07
-1.29619e-05
-2.85151e-05
-2.56063e-07
5.32084e-07
-2.85151e-05
-6.18241e-05
5.32084e-07
1.7322e-06
1.12832e-08
3.29215e-08
5.51045e-08
5.16876e-08
3.29215e-08
-2.33937e-08
5.16876e-08
-7.69191e-08
-2.33937e-08
2.43668e-08
-7.69191e-08
1.26675e-07
2.43669e-08
-1.24699e-08
1.26675e-07
-2.27275e-07
-1.247e-08
8.63504e-08
-2.27275e-07
4.311e-07
-5.22438e-05
7.8912e-05
-6.18241e-05
-7.00441e-05
7.8912e-05
4.76193e-06
-7.00441e-05
-2.47734e-05
-1.81938e-05
-0.00121967
4.026e-05
0.000408975
-4.6212e-05
-0.000231402
6.56993e-05
-7.58037e-05
-0.000231402
-1.81938e-05
-7.58037e-05
4.026e-05
6.56993e-05
-7.58037e-05
4.76193e-06
-3.97726e-05
-0.000286761
-0.000873206
9.44722e-05
-0.000416035
9.44722e-05
-0.000416035
-5.22438e-05
7.8912e-05
-0.000873206
-4.6212e-05
-0.000416035
6.56993e-05
-0.000416035
6.56993e-05
7.8912e-05
4.76193e-06
6.25364e-06
9.3638e-05
-5.26984e-06
-7.95551e-05
9.3638e-05
-0.000286761
-7.95551e-05
-5.22438e-05
0.0176594
0.069172
0.00131883
0.0218176
0.00131883
0.0218176
-0.000533396
-0.00819766
-0.000873086
-0.0015735
-0.000111791
0.00262512
-0.0015735
0.0176594
0.00262512
0.00131883
0.00262512
0.00131883
-0.00121967
-0.000533397
-0.000111791
0.00262512
-1.81938e-05
-0.00121967
-1.11021e-05
-0.000116654
-0.000504363
0.000356972
-0.000116654
-0.000873086
0.000356972
-0.000111791
0.000356972
-0.000111791
-0.000231402
-1.81939e-05
-0.000504363
0.000356972
-4.6212e-05
-0.000231402
-0.000478127
3.46436e-05
-0.00119597
-0.000733643
3.46436e-05
-1.1102e-05
-0.000733643
-0.000504363
-0.000733643
-0.000504363
-0.000873206
-4.6212e-05
-0.00119597
-0.000733643
-0.000286761
-0.000873206
2.91191e-05
-0.000299234
1.81906e-05
-0.000466981
1.81906e-05
-0.000466981
6.25364e-06
9.3638e-05
-0.000299234
-0.000478127
-0.000466981
-0.00119597
-0.000466981
-0.00119597
9.3638e-05
-0.000286761
0.437123
0.654027
0.177202
0.640038
0.654027
0.664485
0.640038
0.720726
0.640037
0.720726
0.069172
0.151553
0.177202
0.640038
0.0176594
0.069172
0.0265748
0.0375282
0.000606342
0.0297694
0.0375282
0.437123
0.0297694
0.177202
0.0297694
0.177202
-0.0015735
0.0176594
0.000606342
0.0297694
-0.000873086
-0.0015735
0.00554659
-0.0138473
-0.000799282
0.00109069
-0.0138473
0.0265748
0.00109069
0.000606343
0.00109069
0.00060634
-0.000116654
-0.000873086
-0.000799282
0.00109069
-1.11021e-05
-0.000116654
0.00257047
-0.00178573
0.0011839
-0.00302505
-0.00178573
0.00554658
-0.00302505
-0.000799282
-0.00302505
-0.000799282
3.46436e-05
-1.11019e-05
0.0011839
-0.00302505
-0.000478127
3.46436e-05
1.97858e-05
0.00230802
3.13404e-05
0.0011304
3.13404e-05
0.0011304
2.91191e-05
-0.000299234
0.00230802
0.00257047
0.0011304
0.0011839
0.0011304
0.0011839
-0.000299234
-0.000478127
0.639014
0.703493
0.653752
0.638898
0.703493
0.732924
0.638898
0.645386
0.638898
0.645386
0.654027
0.664485
0.653752
0.638898
0.437123
0.654027
0.0710735
0.348539
0.045875
0.266582
0.348539
0.639014
0.266582
0.653752
0.266582
0.653752
0.0375282
0.437123
0.045875
0.266582
0.0265748
0.0375282
0.00378308
-0.00946201
0.00327258
-0.00645391
-0.00946201
0.0710735
-0.00645391
0.045875
-0.00645391
0.045875
-0.0138473
0.0265748
0.00327258
-0.00645391
0.00554659
-0.0138473
0.00144053
4.50673e-05
0.00292668
0.00040382
4.50674e-05
0.00378308
0.00040382
0.00327258
0.00040382
0.00327258
-0.00178573
0.00554659
0.00292668
0.00040382
0.00257047
-0.00178573
-1.93654e-05
0.000730078
-4.59105e-06
0.00174139
-4.59105e-06
0.00174139
1.97858e-05
0.00230802
0.000730078
0.00144053
0.00174139
0.00292667
0.00174139
0.00292667
0.00230802
0.00257047
0.734661
0.743254
0.703493
0.732924
0.562912
0.734661
0.639014
0.703493
-0.00103768
-0.0193716
0.0235889
0.197539
0.197539
0.562912
0.348539
0.639014
0.0235889
0.197539
0.0710735
0.348539
0.000412409
-0.000314439
0.00128266
-0.00324589
-0.000314439
-0.00103768
-0.00324589
0.0235889
-0.00324589
0.0235889
-0.00946201
0.0710735
0.00128266
-0.00324589
0.00378308
-0.00946201
0.000376277
0.000612606
0.000728191
0.00167928
0.000612606
0.000412409
0.00167928
0.00128266
0.00167928
0.00128266
4.50674e-05
0.00378308
0.000728191
0.00167928
0.00144053
4.50675e-05
8.01854e-06
0.000308596
-7.12707e-06
0.000228806
-7.12707e-06
0.000228806
-1.93654e-05
0.000730078
0.000308596
0.000376277
0.000228806
0.000728191
0.000228806
0.000728191
0.000730078
0.00144053
-6.11898e-05
7.07269e-05
9.84082e-05
-0.000165685
9.84082e-05
-0.000165685
0.000376277
0.000612606
7.07268e-05
-5.62742e-05
-0.000165685
7.43531e-06
-0.000165685
7.43531e-06
0.000612606
0.000412409
-1.0815e-05
-0.000120631
8.01854e-06
0.000308596
-0.000120631
-6.11899e-05
0.000308596
0.000376277
0.999803
1.00006
1.00022
0.999329
1.00006
1.00057
0.999329
0.999337
1.00057
1.00027
0.999337
0.999253
1.00027
1.00043
0.999253
0.99923
1.00123
0.998815
0.994951
0.999923
0.998815
1.00022
0.999923
0.999619
1.00022
0.999329
0.999619
1.0013
0.999329
0.999337
1.0013
1.00119
0.999337
0.999253
1.00119
1.00136
0.999253
0.99923
1.00136
1.00148
0.994951
0.999923
0.977858
0.994117
0.999923
0.999619
0.994117
1.00116
0.999619
1.0001
1.00116
0.999641
1.0001
1.0013
0.999641
0.996952
1.0013
1.00119
0.996952
0.997411
1.00119
1.00136
0.997411
0.998011
1.00136
1.00148
0.998011
0.997195
1.00116
0.999641
0.999285
0.99939
0.999641
0.996952
0.99939
1.0054
0.996952
0.996611
1.0054
1.00579
0.996611
0.997411
1.00579
1.0057
0.997411
0.997986
1.0057
1.00514
0.997986
0.998011
1.00514
1.00482
0.998011
0.99755
1.00482
1.00472
0.99755
0.997195
1.00472
1.00452
1.0054
1.00579
0.991807
0.991052
1.00579
1.0057
0.991052
0.993697
1.0057
1.00514
0.993697
0.994083
1.00514
1.00482
0.994083
0.993903
1.00482
1.00472
0.993903
0.993888
1.00472
1.00452
0.993888
0.994019
0.017397
0.0209804
-0.00497759
-0.00135595
0.0133525
0.017397
-0.00493407
-0.00497759
0.0708202
0.00363058
0.0148084
0.00477432
0.00363058
0.00571485
0.00477432
-0.00126886
0.402407
0.220622
0.0768275
0.0309891
0.220622
0.0708202
0.0309891
0.0148084
0.0768275
0.0309891
0.0121336
0.00279184
0.418451
0.50817
0.0747327
0.134999
0.50817
0.402407
0.134999
0.0768275
0.134999
0.0768275
0.0209804
0.0121336
0.0747327
0.134999
0.017397
0.0209804
0.103598
0.262605
0.0146156
0.0252606
0.262605
0.418451
0.0252606
0.0747327
0.0252606
0.0747327
0.0133525
0.017397
0.0146156
0.0252606
0.00222314
0.0133525
0.0208602
0.103598
0.00419058
0.0146156
0.734616
0.737593
0.138132
0.144118
0.737593
0.738222
0.144118
0.145123
0.732986
0.728303
0.136877
0.132847
0.728303
0.734616
0.132847
0.138132
0.132847
0.138132
0.00898841
0.00861113
0.136877
0.132847
0.00571485
0.00898841
0.90914
0.780939
0.552905
0.213224
0.780939
0.732986
0.213224
0.136877
0.213224
0.136877
0.00363058
0.00571485
0.552905
0.213224
0.0708202
0.00363058
0.833772
0.922458
0.739372
0.734843
0.922458
0.90914
0.734843
0.552905
0.734843
0.552905
0.220622
0.0708202
0.739372
0.734843
0.402407
0.220622
0.810928
0.797161
0.665114
0.703733
0.797161
0.833772
0.703733
0.739372
0.703733
0.739372
0.50817
0.402407
0.665114
0.703733
0.418451
0.50817
0.468375
0.742715
0.293191
0.560374
0.742715
0.810928
0.560374
0.665114
0.560374
0.665114
0.262605
0.418451
0.293191
0.560374
0.103598
0.262605
0.0134631
0.111243
0.00847612
0.0626967
0.111243
0.468375
0.0626967
0.293191
0.0626967
0.293191
0.0208602
0.103598
0.993903
0.993888
0.734616
0.737593
0.993888
0.994019
0.737593
0.738222
0.993697
0.994083
0.732986
0.728303
0.994083
0.993903
0.728303
0.734616
0.991807
0.991052
0.90914
0.780939
0.991053
0.993697
0.780939
0.732986
0.979435
0.990248
0.92038
0.972926
0.92038
0.972926
0.833772
0.922458
0.990248
0.991807
0.972926
1.00803
0.972926
1.00803
0.922458
0.90914
0.844422
0.961842
0.889233
0.900796
0.961842
0.979435
0.900796
0.92038
0.900796
0.92038
0.797161
0.833772
0.889233
0.900796
0.810928
0.797161
0.0853255
0.385816
0.377778
0.747182
0.385816
0.844422
0.747182
0.889233
0.747182
0.889233
0.742715
0.810928
0.377778
0.747182
0.468375
0.742715
-0.000916792
0.0135302
0.0103844
0.0762562
0.0135302
0.0853255
0.0762562
0.377778
0.0762562
0.377778
0.111243
0.468375
0.0103844
0.0762562
0.0134631
0.111243
-0.000612393
-0.000916792
-0.00110086
0.0103844
-0.00110086
0.0103844
-0.00336449
0.0134631
0.999285
0.99939
0.979435
0.990248
0.99939
1.0054
0.990248
0.991807
0.812036
0.983917
0.747372
0.971772
0.747372
0.971772
0.844422
0.961842
0.983917
0.999284
0.971772
0.998592
0.971772
0.998592
0.961842
0.979435
0.0864466
0.233663
0.0303973
0.124292
0.233663
0.812036
0.124292
0.747372
0.124292
0.747372
0.385816
0.844422
0.0303973
0.124292
0.0853255
0.385816
0.137772
0.11642
0.0192943
0.0119262
0.11642
0.0864466
0.0119262
0.0303973
0.0119262
0.0303973
0.0135302
0.0853255
0.0192943
0.0119262
-0.000916793
0.0135302
0.151553
0.129941
0.0196022
0.0173065
0.129941
0.137772
0.0173065
0.0192943
0.0173065
0.0192943