# vtk DataFile Version 2.0
Hex test
ASCII
DATASET UNSTRUCTURED_GRID
POINTS 9448 float
-12 26 0
-12 28 0
-8.16667 26 0
-8.16667 28 0
-12 28 0
-12 30 0
-8.16667 28 0
-8.16667 30 0
-12 30 0
-12 32 0
-8.16667 30 0
-8.16667 32 0
-12 32 0
-12 34 0
-8.16667 32 0
-8.16667 34 0
-12 34 0
-12 36 0
-8.16667 34 0
-8.16667 36 0
-12 36 0
-12 38 0
-8.16667 36 0
-8.16667 38 0
-12 38 0
-12 40 0
-8.16667 38 0
-8.16667 40 0
-12 40 0
-12 42 0
-8.16667 40 0
-8.16667 42 0
-12 42 0
-12 44 0
-8.16667 42 0
-8.16667 44 0
-12 44 0
-12 46 0
-8.16667 44 0
-8.16667 46 0
-12 46 0
-12 48 0
-8.16667 46 0
-8.16667 48 0
-12 48 0
-12 50 0
-8.16667 48 0
-8.16667 50 0
-12 50 0
-12 52 0
-8.16667 50 0
-8.16667 52 0
-12 52 0
-12 54 0
-8.16667 52 0
-8.16667 54 0
-12 54 0
-12 56.1667 0
-8.16667 54 0
-8.16667 56.1667 0
-12 56.1667 0
-12 60 0
-8.16667 56.1667 0
-8.16667 60 0
-8.16667 26 0
-8.16667 28 0
-6 26 0
-6 28 0
-8.16667 28 0
-8.16667 30 0
-6 28 0
-6 30 0
-8.16667 30 0
-8.16667 32 0
-6 30 0
-6 32 0
-8.16667 32 0
-8.16667 34 0
-6 32 0
-6 34 0
-8.16667 34 0
-8.16667 36 0
-6 34 0
-6 36 0
-8.16667 36 0
-8.16667 38 0
-6 36 0
-6 38 0
-8.16667 38 0
-8.16667 40 0
-6 38 0
-6 40 0
-8.16667 40 0
-8.16667 42 0
-6 40 0
-6 42 0
-8.16667 42 0
-8.16667 44 0
-6 42 0
-6 44 0
-8.16667 44 0
-8.16667 46 0
-6 44 0
-6 46 0
-8.16667 46 0
-8.16667 48 0
-6 46 0
-6 48 0
-8.16667 48 0
-8.16667 50 0
-6 48 0
-6 50 0
-8.16667 50 0
-8.16667 52 0
-6 50 0
-6 52 0
-8.16667 52 0
-8.16667 54 0
-6 52 0
-6 54 0
-8.16667 54 0
-8.16667 56.1667 0
-6 54 0
-6 56.1667 0
-8.16667 56.1667 0
-8.16667 60 0
-6 56.1667 0
-6 60 0
-6 26 0
-6 28 0
-4 26 0
-4 28 0
-6 28 0
-6 30 0
-4 28 0
-4 30 0
-6 30 0
-6 32 0
-4 30 0
-4 32 0
-6 32 0
-6 34 0
-4 32 0
-4 34 0
-6 34 0
-6 36 0
-4 34 0
-4 36 0
-6 36 0
-6 38 0
-4 36 0
-4 38 0
-6 38 0
-6 40 0
-4 38 0
-4 40 0
-6 40 0
-6 42 0
-4 40 0
-4 42 0
-6 42 0
-6 44 0
-4 42 0
-4 44 0
-6 44 0
-6 46 0
-4 44 0
-4 46 0
-6 46 0
-6 48 0
-4 46 0
-4 48 0
-6 48 0
-6 50 0
-4 48 0
-4 50 0
-6 50 0
-6 52 0
-4 50 0
-4 52 0
-6 52 0
-6 54 0
-4 52 0
-4 54 0
-6 54 0
-6 56.1667 0
-4 54 0
-4 56.1667 0
-6 56.1667 0
-6 60 0
-4 56.1667 0
-4 60 0
-4 26 0
-4 28 0
-2 26 0
-2 28 0
-4 28 0
-4 30 0
-2 28 0
-2 30 0
-4 30 0
-4 32 0
-2 30 0
-2 32 0
-4 32 0
-4 34 0
-2 32 0
-2 34 0
-4 34 0
-4 36 0
-2 34 0
-2 36 0
-4 36 0
-4 38 0
-2 36 0
-2 38 0
-4 38 0
-4 40 0
-2 38 0
-2 40 0
-4 40 0
-4 42 0
-2 40 0
-2 42 0
-4 42 0
-4 44 0
-2 42 0
-2 44 0
-4 44 0
-4 46 0
-2 44 0
-2 46 0
-4 46 0
-4 48 0
-2 46 0
-2 48 0
-4 48 0
-4 50 0
-2 48 0
-2 50 0
-4 50 0
-4 52 0
-2 50 0
-2 52 0
-4 52 0
-4 54 0
-2 52 0
-2 54 0
-4 54 0
-4 56.1667 0
-2 54 0
-2 56.1667 0
-4 56.1667 0
-4 60 0
-2 56.1667 0
-2 60 0
-2 26 0
-2 28 0
-2.77556e-17 26 0
-5.55112e-17 28 0
-2 28 0
-2 30 0
-2.77556e-17 28 0
-5.55112e-17 30 0
-2 30 0
-2 32 0
-2.77556e-17 30 0
-6.93889e-17 32 0
-2 32 0
-2 34 0
-8.32667e-17 32 0
-5.55112e-17 34 0
-2 34 0
-2 35 0
-6.245e-17 34 0
6.245e-17 35 0
-2 35 0
-2 36 0
6.245e-17 35 0
-5.55112e-17 36 0
-2 36 0
-2 37 0
-2.77556e-17 36 0
8.32667e-17 37 0
-2 37 0
-2 38 0
8.32667e-17 37 0
-5.55112e-17 38 0
-2 38 0
-2 39 0
-2.77556e-17 38 0
8.32667e-17 39 0
-2 39 0
-2 40 0
8.32667e-17 39 0
-5.55112e-17 40 0
-2 40 0
-2 41 0
-2.77556e-17 40 0
5.55112e-17 41 0
-2 41 0
-2 42 0
5.55112e-17 41 0
-6.245e-17 42 0
-2 42 0
-2 44 0
-8.32667e-17 42 0
-6.93889e-17 44 0
-2 44 0
-2 46 0
-4.16334e-17 44 0
-5.55112e-17 46 0
-2 46 0
-2 48 0
-2.77556e-17 46 0
-5.55112e-17 48 0
-2 48 0
-2 50 0
-2.77556e-17 48 0
-5.55112e-17 50 0
-2 50 0
-2 52 0
-2.77556e-17 50 0
-5.55112e-17 52 0
-2 52 0
-2 54 0
-2.77556e-17 52 0
-5.55112e-17 54 0
-2 54 0
-2 56.1667 0
-2.77556e-17 54 0
-1.38778e-17 56.1667 0
-2 56.1667 0
-2 60 0
2.77556e-17 56.1667 0
0 60 0
2.77556e-17 28 0
2.42861e-17 29 0
2 28 0
2 29 0
2.42861e-17 29 0
2.77556e-17 30 0
2 29 0
2 30 0
2.77556e-17 30 0
2.94903e-17 31 0
2 30 0
2 31 0
2.94903e-17 31 0
-4.16334e-17 32 0
2 31 0
2 32 0
-2.77556e-17 32 0
-6.93889e-18 33 0
2 32 0
2 33 0
-6.93889e-18 33 0
0 34 0
2 33 0
2 34 0
-6.93889e-18 34 0
3.1225e-17 35 0
2 34 0
2 35 0
3.1225e-17 35 0
2.77556e-17 36 0
2 35 0
2 36 0
2.77556e-17 36 0
8.67362e-17 37 0
2 36 0
2 37 0
8.67362e-17 37 0
2.77556e-17 38 0
2 37 0
2 38 0
2.77556e-17 38 0
8.67362e-17 39 0
2 38 0
2 39 0
8.67362e-17 39 0
2.77556e-17 40 0
2 39 0
2 40 0
2.77556e-17 40 0
-2.42861e-17 41 0
2 40 0
2 41 0
-2.42861e-17 41 0
-6.93889e-18 42 0
2 41 0
2 42 0
0 42 0
-6.93889e-18 43 0
2 42 0
2 43 0
-6.93889e-18 43 0
-2.77556e-17 44 0
2 43 0
2 44 0
-4.16334e-17 44 0
2.77556e-17 46 0
2 44 0
2 46 0
2.77556e-17 46 0
2.77556e-17 48 0
2 46 0
2 48 0
2 28 0
2 29 0
4 28 0
4 29 0
2 29 0
2 30 0
4 29 0
4 30 0
2 30 0
2 31 0
4 30 0
4 31 0
2 31 0
2 32 0
4 31 0
4 32 0
2 32 0
2 33 0
4 32 0
4 33 0
2 33 0
2 34 0
4 33 0
4 34 0
2 42 0
2 43 0
4 42 0
4 43 0
2 43 0
2 44 0
4 43 0
4 44 0
2 34 0
2 35 0
4 34 0
4 35 0
2 35 0
2 36 0
4 35 0
4 36 0
2 36 0
2 37 0
4 36 0
4 37 0
2 37 0
2 38 0
4 37 0
4 38 0
2 38 0
2 39 0
4 38 0
4 39 0
2 39 0
2 40 0
4 39 0
4 40 0
2 40 0
2 41 0
4 40 0
4 41 0
2 41 0
2 42 0
4 41 0
4 42 0
4 31 0
4 32 0
6 31 0
6 32 0
4 32 0
4 33 0
6 32 0
6 33 0
4 33 0
4 34 0
6 33 0
6 34 0
4 34 0
4 35 0
5 34 0
5 35 0
5 34 0
5 35 0
6 34 0
6 35 0
4 35 0
4 36 0
5 35 0
5 36 0
5 35 0
5 36 0
6 35 0
6 36 0
4 36 0
4 37 0
5 36 0
5 37 0
4 37 0
4 38 0
5 37 0
5 38 0
5 37 0
5 38 0
6 37 0
6 38 0
5 36 0
5 37 0
6 36 0
6 37 0
4 38 0
4 39 0
5 38 0
5 39 0
4 39 0
4 40 0
5 39 0
5 40 0
5 39 0
5 40 0
6 39 0
6 40 0
5 38 0
5 39 0
6 38 0
6 39 0
4 40 0
4 41 0
5 40 0
5 41 0
5 40 0
5 41 0
6 40 0
6 41 0
6 32 0
6 33 0
7 32 0
7 33 0
6 33 0
6 34 0
7 33 0
7 34 0
7 33 0
7 34 0
8 33 0
8 34 0
6 34 0
6 35 0
7 34 0
7 35 0
6 35 0
6 36 0
7 35 0
7 36 0
7 35 0
7 36 0
8 35 0
8 36 0
7 34 0
7 35 0
8 34 0
8 35 0
6 36 0
6 37 0
7 36 0
7 37 0
6 37 0
6 38 0
7 37 0
7 38 0
7 36 0
7 37 0
8 36 0
8 37 0
6 38 0
6 39 0
7 38 0
7 39 0
6 39 0
6 40 0
7 39 0
7 40 0
7 38 0
7 39 0
8 38 0
8 39 0
2.77556e-17 26 0
2.42861e-17 27 0
2 26 0
2 27 0
2.42861e-17 27 0
2.77556e-17 28 0
2 27 0
2 28 0
2 24 0
2 25 0
4 24 0
4 25 0
2 25 0
2 26 0
4 25 0
4 26 0
2 26 0
2 27 0
4 26 0
4 27 0
2 27 0
2 28 0
4 27 0
4 28 0
14 20 0
14 21 0
16 20 0
16 21 0
14 21 0
14 22 0
16 21 0
16 22 0
14 22 0
14 23 0
16 22 0
16 23 0
14 23 0
14 24 0
16 23 0
16 24 0
14 24 0
14 25 0
16 24 0
16 25 0
14 25 0
14 26 0
16 25 0
16 26 0
14 26 0
14 27 0
16 26 0
16 27 0
14 27 0
14 28 0
16 27 0
16 28 0
14 28 0
14 29 0
16 28 0
16 29 0
14 29 0
14 30 0
16 29 0
16 30 0
14 30 0
14 31 0
16 30 0
16 31 0
16 20 0
16 21 0
18 20 0
18 21 0
16 22 0
16 23 0
18 22 0
18 23 0
16 23 0
16 24 0
18 23 0
18 24 0
16 24 0
16 25 0
18 24 0
18 25 0
16 25 0
16 26 0
18 25 0
18 26 0
16 26 0
16 27 0
18 26 0
18 27 0
16 27 0
16 28 0
18 27 0
18 28 0
16 28 0
16 29 0
18 28 0
18 29 0
16 29 0
16 30 0
18 29 0
18 30 0
18 20 0
18 22 0
20 20 0
20 22 0
18 22 0
18 24 0
20 22 0
20 24 0
18 24 0
18 26 0
20 24 0
20 26 0
18 26 0
18 28 0
20 26 0
20 28 0
18 28 0
18 30 0
20 28 0
20 30 0
20 18 0
20 20 0
22 18 0
22 20 0
20 20 0
20 22 0
22 20 0
22 22 0
20 22 0
20 24 0
22 22 0
22 24 0
20 24 0
20 26 0
22 24 0
22 26 0
20 26 0
20 28 0
22 26 0
22 28 0
20 28 0
20 30 0
22 28 0
22 30 0
22 22 0
22 24 0
24 22 0
24 24 0
22 24 0
22 26 0
24 24 0
24 26 0
22 26 0
22 28 0
24 26 0
24 28 0
22 28 0
22 30 0
24 28 0
24 30 0
24 18 0
24 20 0
26 18 0
26 20 0
24 22 0
24 24 0
26 22 0
26 24 0
24 24 0
24 26 0
26 24 0
26 26 0
26 20 0
26 22 0
28 20 0
28 22 0
4 24 0
4 25 0
6 24 0
6 25 0
4 25 0
4 26 0
6 25 0
6 26 0
4 26 0
4 27 0
6 26 0
6 27 0
4 27 0
4 28 0
6 27 0
6 28 0
4 28 0
4 29 0
6 28 0
6 29 0
4 29 0
4 30 0
6 29 0
6 30 0
4 30 0
4 31 0
6 30 0
6 31 0
7 21 0
7 22 0
8 21 0
8 22 0
6 22 0
6 23 0
7 22 0
7 23 0
6 23 0
6 24 0
7 23 0
7 24 0
7 23 0
7 24 0
8 23 0
8 24 0
7 22 0
7 23 0
8 22 0
8 23 0
6 24 0
6 25 0
7 24 0
7 25 0
6 25 0
6 26 0
7 25 0
7 26 0
7 25 0
7 26 0
8 25 0
8 26 0
7 24 0
7 25 0
8 24 0
8 25 0
6 26 0
6 27 0
7 26 0
7 27 0
6 27 0
6 28 0
7 27 0
7 28 0
7 27 0
7 28 0
8 27 0
8 28 0
7 26 0
7 27 0
8 26 0
8 27 0
6 28 0
6 29 0
7 28 0
7 29 0
6 29 0
6 30 0
7 29 0
7 30 0
7 29 0
7 30 0
8 29 0
8 30 0
7 28 0
7 29 0
8 28 0
8 29 0
6 30 0
6 31 0
7 30 0
7 31 0
6 31 0
6 32 0
7 31 0
7 32 0
7 31 0
7 32 0
8 31 0
8 32 0
7 30 0
7 31 0
8 30 0
8 31 0
7 32 0
7 33 0
8 32 0
8 33 0
12 30 0
12 31 0
14 30 0
14 31 0
12 31 0
12 32 0
14 31 0
14 32 0
12 28 0
12 29 0
14 28 0
14 29 0
12 29 0
12 30 0
14 29 0
14 30 0
12 26 0
12 27 0
14 26 0
14 27 0
12 27 0
12 28 0
14 27 0
14 28 0
12 24 0
12 25 0
14 24 0
14 25 0
12 25 0
12 26 0
14 25 0
14 26 0
12 22 0
12 23 0
14 22 0
14 23 0
12 23 0
12 24 0
14 23 0
14 24 0
12 20 0
12 21 0
14 20 0
14 21 0
12 21 0
12 22 0
14 21 0
14 22 0
9 19 0
9 20 0
10 19 0
10 20 0
8 20 0
8 21 0
9 20 0
9 21 0
8 21 0
8 22 0
9 21 0
9 22 0
9 21 0
9 22 0
10 21 0
10 22 0
9 20 0
9 21 0
10 20 0
10 21 0
8 22 0
8 23 0
9 22 0
9 23 0
8 23 0
8 24 0
9 23 0
9 24 0
9 23 0
9 24 0
10 23 0
10 24 0
9 22 0
9 23 0
10 22 0
10 23 0
8 24 0
8 25 0
9 24 0
9 25 0
8 25 0
8 26 0
9 25 0
9 26 0
9 25 0
9 26 0
10 25 0
10 26 0
9 24 0
9 25 0
10 24 0
10 25 0
8 26 0
8 27 0
9 26 0
9 27 0
8 27 0
8 28 0
9 27 0
9 28 0
9 27 0
9 28 0
10 27 0
10 28 0
9 26 0
9 27 0
10 26 0
10 27 0
8 28 0
8 29 0
9 28 0
9 29 0
8 29 0
8 30 0
9 29 0
9 30 0
9 29 0
9 30 0
10 29 0
10 30 0
9 28 0
9 29 0
10 28 0
10 29 0
8 30 0
8 31 0
9 30 0
9 31 0
8 31 0
8 32 0
9 31 0
9 32 0
9 31 0
9 32 0
10 31 0
10 32 0
9 30 0
9 31 0
10 30 0
10 31 0
8 32 0
8 33 0
9 32 0
9 33 0
8 33 0
8 34 0
9 33 0
9 34 0
9 32 0
9 33 0
10 32 0
10 33 0
8 34 0
8 35 0
9 34 0
9 35 0
10 32 0
10 33 0
11 32 0
11 33 0
11 32 0
11 33 0
12 32 0
12 33 0
10 30 0
10 31 0
11 30 0
11 31 0
10 31 0
10 32 0
11 31 0
11 32 0
11 31 0
11 32 0
12 31 0
12 32 0
11 30 0
11 31 0
12 30 0
12 31 0
10 28 0
10 29 0
11 28 0
11 29 0
10 29 0
10 30 0
11 29 0
11 30 0
11 29 0
11 30 0
12 29 0
12 30 0
11 28 0
11 29 0
12 28 0
12 29 0
10 26 0
10 27 0
11 26 0
11 27 0
10 27 0
10 28 0
11 27 0
11 28 0
11 27 0
11 28 0
12 27 0
12 28 0
11 26 0
11 27 0
12 26 0
12 27 0
10 24 0
10 25 0
11 24 0
11 25 0
10 25 0
10 26 0
11 25 0
11 26 0
11 25 0
11 26 0
12 25 0
12 26 0
11 24 0
11 25 0
12 24 0
12 25 0
10 22 0
10 23 0
11 22 0
11 23 0
10 23 0
10 24 0
11 23 0
11 24 0
11 23 0
11 24 0
12 23 0
12 24 0
11 22 0
11 23 0
12 22 0
12 23 0
[...]
POINT_DATA 9448
SCALARS phi float 1
LOOKUP_TABLE default
4.4596e-05
4.57233e-05
4.53103e-05
3.87456e-05
4.57233e-05
3.9325e-05
3.87456e-05
3.88213e-05
3.9325e-05
3.02318e-05
3.88213e-05
3.32394e-05
3.02318e-05
-5.32767e-05
3.32394e-05
-5.22687e-05
-5.32767e-05
1.48514e-05
-5.22686e-05
1.50766e-05
1.48514e-05
-2.54679e-06
1.50766e-05
-2.68652e-06
-2.54679e-06
2.34234e-06
-2.68652e-06
2.39081e-06
2.34234e-06
-9.28345e-07
2.39081e-06
-9.79867e-07
-9.28345e-07
5.36514e-07
-9.79867e-07
5.65797e-07
5.36514e-07
-3.07057e-07
5.65797e-07
-3.02086e-07
-3.07057e-07
1.84526e-07
-3.02086e-07
1.87013e-07
1.84526e-07
-9.33894e-08
1.87013e-07
-9.26865e-08
-9.33894e-08
5.07225e-08
-9.26865e-08
5.14944e-08
5.07225e-08
-2.91329e-08
5.14944e-08
-2.931e-08
-2.91329e-08
1.73796e-08
-2.931e-08
1.74032e-08
1.73796e-08
1.54194e-08
1.74032e-08
1.56389e-08
4.53103e-05
3.87456e-05
-7.94761e-05
-8.47985e-05
3.87456e-05
3.88213e-05
-8.47985e-05
-7.18022e-05
3.88213e-05
3.32394e-05
-7.18022e-05
-5.16982e-05
3.32394e-05
-5.22687e-05
-5.16982e-05
8.13425e-05
-5.22686e-05
1.50766e-05
8.13425e-05
-2.4613e-05
1.50765e-05
-2.68652e-06
-2.4613e-05
4.04397e-06
-2.68652e-06
2.39081e-06
4.04396e-06
-3.75772e-06
2.39081e-06
-9.79867e-07
-3.75771e-06
1.50865e-06
-9.79868e-07
5.65797e-07
1.50865e-06
-8.53291e-07
5.65797e-07
-3.02086e-07
-8.53291e-07
5.06586e-07
-3.02086e-07
1.87013e-07
5.06586e-07
-3.05011e-07
1.87013e-07
-9.26865e-08
-3.05011e-07
1.53717e-07
-9.26865e-08
5.14944e-08
1.53717e-07
-8.34907e-08
5.14944e-08
-2.931e-08
-8.34907e-08
4.87833e-08
-2.931e-08
1.74032e-08
4.87833e-08
-3.00049e-08
1.74032e-08
1.56389e-08
-3.00049e-08
-2.56307e-08
-7.94761e-05
-8.47985e-05
0.000141092
0.000160728
-8.47985e-05
-7.18022e-05
0.000160728
0.000130521
-7.18022e-05
-5.16982e-05
0.000130521
8.81315e-05
-5.16982e-05
8.13425e-05
8.81315e-05
-0.000135148
8.13425e-05
-2.46131e-05
-0.000135148
4.23737e-05
-2.4613e-05
4.04397e-06
4.23737e-05
-6.74006e-06
4.04397e-06
-3.75772e-06
-6.74007e-06
6.37273e-06
-3.75771e-06
1.50865e-06
6.37273e-06
-2.54624e-06
1.50865e-06
-8.53291e-07
-2.54624e-06
1.43051e-06
-8.53291e-07
5.06586e-07
1.43051e-06
-8.80599e-07
5.06587e-07
-3.05011e-07
-8.80599e-07
5.25714e-07
-3.05011e-07
1.53717e-07
5.25714e-07
-2.6523e-07
1.53717e-07
-8.34907e-08
-2.6523e-07
1.43926e-07
-8.34906e-08
4.87833e-08
1.43925e-07
-8.49896e-08
4.87833e-08
-3.00049e-08
-8.49896e-08
5.32796e-08
-3.00049e-08
-2.56307e-08
5.32796e-08
4.4595e-08
0.000141092
0.000160728
-0.000259525
-0.000305898
0.000160728
0.000130521
-0.000305898
-0.000250535
0.000130521
8.81316e-05
-0.000250535
-0.000162124
8.81315e-05
-0.000135148
-0.000162124
0.000237607
-0.000135148
4.23737e-05
0.000237607
-7.74374e-05
4.23737e-05
-6.74006e-06
-7.74374e-05
1.16213e-05
-6.74007e-06
6.37273e-06
1.16213e-05
-1.16477e-05
6.37273e-06
-2.54624e-06
-1.16477e-05
4.58436e-06
-2.54624e-06
1.43051e-06
4.58437e-06
-2.50427e-06
1.43051e-06
-8.80599e-07
-2.50427e-06
1.6117e-06
-8.80599e-07
5.25714e-07
1.6117e-06
-9.71168e-07
5.25714e-07
-2.6523e-07
-9.71167e-07
5.05521e-07
-2.6523e-07
1.43925e-07
5.05521e-07
-2.65976e-07
1.43925e-07
-8.49896e-08
-2.65976e-07
1.58621e-07
-8.49896e-08
5.32796e-08
1.58621e-07
-1.00344e-07
5.32795e-08
4.4595e-08
-1.00344e-07
-8.29819e-08
-0.000259525
-0.000305898
0.00050251
0.000545882
-0.000305898
-0.000250535
0.000545883
0.000450072
-0.000250535
-0.000162124
0.000450072
0.000358206
-0.000162124
0.000237607
0.000358206
-0.000218493
0.000237607
0.000108601
-0.000218493
9.74645e-05
0.000108601
-7.74374e-05
9.74645e-05
-1.25189e-05
-7.74374e-05
-7.19704e-05
-1.25189e-05
0.000241203
-7.19704e-05
1.16212e-05
0.000241203
-0.000100341
1.16213e-05
1.83045e-05
-0.000100341
-5.83458e-05
1.83045e-05
-1.16477e-05
-5.83458e-05
3.34761e-05
-1.16477e-05
-1.04306e-05
3.34761e-05
2.3071e-05
-1.04306e-05
4.58436e-06
2.3071e-05
-2.39554e-05
4.58437e-06
-2.50427e-06
-2.39554e-05
9.62749e-06
-2.50427e-06
1.6117e-06
9.62749e-06
-5.78606e-06
1.6117e-06
-9.71168e-07
-5.78606e-06
3.3154e-06
-9.71167e-07
5.05521e-07
3.3154e-06
-1.71389e-06
5.05521e-07
-2.65976e-07
-1.71389e-06
9.46328e-07
-2.65976e-07
1.58621e-07
9.46328e-07
-5.59311e-07
1.58621e-07
-1.00344e-07
-5.59311e-07
3.50117e-07
-1.00344e-07
-8.29819e-08
3.50117e-07
3.07855e-07
0.000545883
0.000482187
-0.00102534
-0.00102382
0.000482187
0.000450072
-0.00102382
-0.000598172
0.000450072
0.000484336
-0.000598171
-0.00104581
0.000484336
0.000358206
-0.00104581
-0.000467167
0.000358206
-5.4804e-05
-0.000467167
0.000901256
-5.4804e-05
-0.000218493
0.000901256
0.00153197
-0.000218493
9.74645e-05
0.00153197
0.00144106
9.74645e-05
-1.25189e-05
0.00144106
-0.000378658
-1.25189e-05
0.000241203
-0.000378658
-7.62004e-05
0.000241203
-0.000100341
-7.62004e-05
-0.000125467
-0.000100341
-5.83457e-05
-0.000125467
2.55206e-05
-5.83457e-05
3.34761e-05
2.55206e-05
-2.80822e-05
3.34762e-05
2.30709e-05
-2.80822e-05
-4.18382e-05
2.30709e-05
-2.39554e-05
-4.18382e-05
-2.39695e-05
-2.39554e-05
-1.75056e-05
-2.39695e-05
-2.00815e-06
-1.75056e-05
9.62749e-06
-2.00815e-06
-3.40701e-07
9.6275e-06
-5.78606e-06
-3.40701e-07
5.28543e-07
-5.78606e-06
3.3154e-06
5.28543e-07
-7.86084e-07
-0.00102534
-0.00102382
0.00160495
0.00137192
-0.00102382
-0.000598171
0.00137192
0.00152851
-0.000598172
-0.0010458
0.00152851
0.00113062
-0.0010458
-0.000467167
0.00113062
0.000855385
-0.000467167
0.000901256
0.000855385
3.9351e-05
0.000901256
0.00153197
3.9351e-05
-0.00137253
-2.39695e-05
-2.00815e-06
-6.122e-07
9.58278e-06
-2.00815e-06
-3.40701e-07
9.58278e-06
4.23835e-06
0.00153197
0.00144106
-0.00137253
-0.00121703
0.00144106
-0.000378658
-0.00121703
-0.00112624
-0.000378658
-7.62004e-05
-0.00112624
-0.000508098
-7.62004e-05
-0.000125467
-0.000508098
0.00014918
-0.000125467
2.55206e-05
0.00014918
-7.90387e-08
2.55206e-05
-2.80822e-05
-7.90455e-08
1.81998e-05
-2.80822e-05
-4.18382e-05
1.81998e-05
1.56998e-05
-4.18382e-05
-2.39695e-05
1.56998e-05
-6.12201e-07
0.00113062
0.000855385
0.000359204
0.000532063
0.000855385
3.93511e-05
0.000532063
0.000805087
3.93511e-05
-0.00137253
0.000805087
0.00567618
-0.00137253
-0.00121703
0.00343352
0.000760981
0.00343352
0.000760981
0.00567618
0.00502641
-0.00121703
-0.00112624
0.000760981
-0.00618922
0.000760981
-0.00618922
0.00502641
0.000761301
-0.00112624
-0.000508098
-0.00618922
-0.00211032
-0.000508098
0.00014918
-0.00211032
0.000176432
-0.00211032
0.000176432
-0.00196001
0.000509095
-0.00618922
-0.00211032
0.000761301
-0.00196001
0.00014918
-7.90483e-08
0.000176432
6.74922e-05
-7.90492e-08
1.81998e-05
6.74922e-05
6.76354e-05
6.74922e-05
6.76353e-05
-0.000199557
0.000137361
0.000176432
6.74922e-05
0.000509095
-0.000199557
1.81998e-05
1.56998e-05
6.76354e-05
-2.45622e-05
6.76354e-05
-2.45622e-05
0.000137361
0.000109153
0.000532063
0.000805087
0.00241135
0.020764
0.000805087
0.00567618
0.020764
0.0622411
0.020764
0.0622411
0.183275
0.359736
0.00567618
0.00502641
0.0622411
0.0494669
0.00502641
0.000761301
0.0494669
0.014924
0.0494669
0.014924
0.291556
0.135817
0.0622411
0.0494669
0.359736
0.291556
0.000761301
-0.00196001
0.014924
0.00960682
-0.00196001
0.000509095
0.00960682
-0.00108582
0.014924
0.00960682
0.135817
0.0555265
0.000509095
-0.000199556
-0.00108582
0.000867344
-0.000199556
0.000137361
0.000867344
-0.000469338
-0.00108582
0.000867344
0.00154876
0.00263765
0.00050251
0.000557871
-0.00101052
-0.000919158
0.000557871
0.000545883
-0.000919158
-0.00102534
-0.00071326
-0.000757014
0.00130013
0.00130071
-0.000757014
-0.00101052
0.00130071
0.00140527
-0.00101052
-0.000919158
0.00140527
0.00169317
-0.000919158
-0.00102534
0.00169317
0.00160495
0.99992
0.999109
0.999892
1.0002
0.999109
0.998582
1.0002
1.00078
0.998582
0.998697
1.00078
1.00086
0.998697
0.998821
1.00086
1.00066
0.998821
0.998693
1.00066
1.00087
0.998693
0.998488
1.00087
1.00084
0.998488
0.998794
1.00084
1.00026
0.998794
0.999568
1.00026
1.00015
0.999568
0.999661
1.00015
1.00047
0.999661
0.998917
1.00047
1.00046
0.998917
0.998248
1.00046
1.00072
0.999892
1.0002
1.00007
0.999857
1.00078
1.00086
0.99954
0.999478
1.00086
1.00066
0.999478
0.999556
1.00066
1.00087
0.999556
0.999587
1.00087
1.00084
0.999587
0.999583
1.00084
1.00026
0.999583
0.999616
1.00026
1.00015
0.999616
0.999792
1.00015
1.00047
0.999792
1.00009
1.00047
1.00046
1.00009
0.999978
1.00007
0.99954
0.999975
1.00017
0.99954
0.999556
1.00017
1.00021
0.999556
0.999583
1.00021
1.00017
0.999583
0.999792
1.00017
1.00008
0.999792
0.999978
1.00008
0.999945
1
0.999975
1.00029
0.999989
0.999975
1.00017
0.999989
1.00001
1.00017
1.00021
1.00001
1.00005
1.00021
1.00017
1.00005
0.999815
1.00017
1.00008
0.999815
1.00041
1.00008
0.999945
1.00041
0.999438
1.00001
1.00005
0.999798
0.999906
1.00005
0.999815
0.999906
0.999708
0.999815
1.00041
0.999708
1.00006
1.00041
0.999438
1.00006
0.999299
0.999781
0.999833
0.999901
1.00065
0.999797
0.999906
1.00024
1.00053
0.999906
0.999708
1.00053
1.00028
1.00065
1.00024
0.999206
0.999233
0.00130013
0.00130071
0.000819314
0.000809611
0.00130071
0.00140527
0.000809611
0.00071462
0.00140527
0.00169317
0.00071462
0.00117161
0.00169317
0.00160495
0.00117161
0.00108936
0.00160495
0.00137192
0.00108936
0.000849277
0.00137192
0.00152851
0.000849277
0.00140255
0.00152851
0.00113062
0.00140255
0.000359203
0.00949824
0.00725063
0.0775922
0.0370398
0.000866695
0.000782908
0.00725063
0.00624002
0.000782908
0.000819314
0.00624002
0.00600135
0.00624002
0.00600135
0.0258259
0.0249141
0.00725063
0.00624002
0.0370398
0.0258259
0.000819314
0.000809612
0.00600135
0.00589054
0.000809612
0.00071462
0.00589054
0.00587836
0.00589054
0.00587836
0.0228847
0.0240942
0.00600135
0.00589054
0.0249141
0.0228847
0.00071462
0.00117161
0.00587836
0.00835017
0.00117161
0.00108936
0.00835017
0.00949641
0.00835017
0.00949641
0.0491967
0.111452
0.00587836
0.00835017
0.0240942
0.0491967
0.00108936
0.000849277
0.00949641
0.00969893
0.000849277
0.00140255
0.00969893
0.00889036
0.00969893
0.00889036
0.13427
0.0608514
0.00949641
0.00969893
0.111452
0.13427
0.00140255
0.000359204
0.00889036
0.00537544
0.000359204
0.000532063
0.00537544
0.00241134
0.00537544
0.00241135
0.0306832
0.0054743
0.00889036
0.00537544
0.0608514
0.0306832
0.00241135
0.020764
0.0054743
0.183275
0.999212
0.998225
0.998917
0.998248
0.998224
0.994941
0.998248
0.997542
0.999699
1.00005
0.999568
0.999661
1.00005
0.999212
0.999661
0.998917
0.998397
0.998685
0.998488
0.998794
0.998685
0.999699
0.998794
0.999568
0.998203
0.998323
0.998821
0.998693
0.998323
0.998398
0.998693
0.998488
0.998547
0.998354
0.998582
0.998697
0.998354
0.998203
0.998697
0.998821
0.999858
0.999124
0.99992
0.999109
0.999124
0.998547
0.999109
0.998582
0.805631
0.764808
0.988774
0.987359
0.138625
0.0775922
0.764808
0.631553
0.0775922
0.0370398
0.631553
0.461505
0.631553
0.461505
0.976605
0.948943
0.764808
0.631553
0.987359
0.976605
0.0370398
0.0258259
0.461505
0.404336
0.0258259
0.0249141
0.404336
0.394521
0.404336
0.394521
0.935414
0.934358
0.461505
0.404336
0.948943
0.935414
0.0249141
0.0228847
0.394521
0.38631
0.0228847
0.0240942
0.38631
0.387928
0.38631
0.387928
0.930246
0.930971
0.394521
0.38631
0.934358
0.930246
0.0240942
0.0491967
0.387928
0.523459
0.0491967
0.111452
0.523459
0.722168
0.523459
0.722168
0.959406
0.986088
0.387928
0.523459
0.930971
0.959406
0.111452
0.13427
0.722168
0.763944
0.13427
0.0608514
0.763944
0.57258
0.763944
0.57258
0.987298
0.968733
0.722168
0.763944
0.986087
0.987298
0.0608514
0.0306832
0.57258
0.356345
0.0306832
0.0054743
0.356345
0.282144
0.356345
0.282144
0.908748
0.871601
0.57258
0.356345
0.968733
0.908748
0.0054743
0.183275
0.282144
0.59272
0.183275
0.359736
0.59272
0.597424
0.282144
0.59272
0.871601
0.746007
0.359736
0.291556
0.597424
0.550597
0.871601
0.746007
0.976301
0.890645
0.976301
0.890645
0.994941
0.975999
0.968733
0.908748
0.993582
0.988686
0.908748
0.871601
0.988686
0.976301
0.988686
0.976301
0.998225
0.994941
0.993582
0.988686
0.999212
0.998225
0.986087
0.987298
0.997351
0.998506
0.987298
0.968733
0.998506
0.993582
0.998506
0.993582
1.00005
0.999212
0.997351
0.998506
0.999699
1.00005
0.930971
0.959406
0.990568
0.992371
0.959406
0.986087
0.992371
0.997351
0.992371
0.997351
0.998684
0.999699
0.990568
0.992371
0.998398
0.998685
0.934358
0.930246
0.990623
0.990581
0.930246
0.930971
0.990581
0.990568
0.990581
0.990568
0.998323
0.998398
0.990623
0.990581
0.998203
0.998323
0.948943
0.935414
0.991315
0.990781
0.935414
0.934358
0.990781
0.990623
0.990781
0.990623
0.998354
0.998203
0.991315
0.990781
0.998547
0.998354
0.987359
0.976605
0.998766
0.994429
0.976605
0.948943
0.994429
0.991315
0.994429
0.991315
0.999124
0.998547
0.998766
0.994429
0.999858
0.999124
0.988774
0.987359
0.999752
0.998766
0.999752
0.998766
1.00034
0.999858
0.998248
0.997542
1.00072
0.99951
0.997542
1.00026
0.99951
0.997882
1.00026
1.00415
0.997882
0.998686
1.00046
1.00072
0.999978
0.99916
1.00072
0.99951
0.99916
0.998894
0.99951
0.997882
0.998894
0.999994
0.997882
0.998686
0.999994
0.999947
0.998686
1.00136
0.999947
0.997256
1.00136
0.992199
0.997256
0.999465
0.999978
0.998894
0.999945
1.00038
0.998894
0.999947
1.00038
0.999701
0.999947
0.997256
0.999701
1.00188
0.997256
0.999465
1.00188
0.999358
0.999945
1.00038
0.999438
1.00088
1.00038
0.999701
1.00088
0.997771
0.999701
0.999358
0.997771
0.99858
0.999438
1.00088
0.999299
1.00085
1.00088
0.997771
1.00085
0.99904
0.997771
0.99858
0.99904
0.999005
0.99904
0.999005
0.998433
0.999365
0.983227
0.686326
0.98246
0.682734
0.686326
0.0866414
0.682734
0.0866506
0.0422017
0.0119027
0.0749635
0.0136207
0.959881
0.514759
0.97915
0.647516
0.514759
0.0422017
0.647516
0.0749635
0.647516
0.0749635
0.686326
0.0866414
0.97915
0.647516
0.983227
0.686326
0.999005
0.992484
0.999141
0.99387
0.999141
0.99387
0.999365
0.996024
0.992484
0.959881
0.99387
0.97915
0.99387
0.97915
0.996024
0.983227
-0.00327667
0.00170095
-0.00367557
0.0019228
0.0204974
0.0074171
0.0233776
0.008586
0.0074171
-0.00327667
0.008586
-0.00367557
0.008586
-0.00367557
0.0119027
-0.00510557
0.0233776
0.008586
0.0422017
0.0119027
0.927667
0.36996
0.934336
0.393223
0.36996
0.0204974
0.393223
0.0233776
0.393223
0.0233776
0.514759
0.0422017
0.934336
0.393223
0.959881
0.514759
0.99858
0.988812
0.998741
0.989807
0.998741
0.989807
0.999005
0.992484
0.988812
0.927667
0.989807
0.934336
0.989807
0.934336
0.992484
0.959881
-0.00408396
0.0022553
-0.00462068
0.00247181
-0.00462068
0.00247181
-0.00327667
0.00170095
0.107431
0.0143286
0.0384748
0.0111649
0.0143286
-0.00408396
0.0111649
-0.00462068
0.0111649
-0.00462068
0.0074171
-0.00327667
0.0384748
0.0111649
0.0204974
0.0074171
0.980307
0.694323
0.951257
0.479756
0.694323
0.107431
0.479756
0.0384748
0.479756
0.0384748
0.36996
0.0204974
0.951257
0.479756
0.927667
0.36996
0.999358
0.995806
0.998786
0.992124
0.998786
0.992124
0.99858
0.988812
0.995806
0.980307
0.992124
0.951257
0.992124
0.951257
0.988812
0.927667
0.0073447
-0.00239072
0.00308037
-0.000922423
-0.00239072
0.00125233
-0.000922423
0.000460747
-0.000922424
0.000460747
0.0022553
-0.00112017
0.00308037
-0.000922423
-0.00408396
0.0022553
0.359774
0.0324912
0.269204
0.0200117
0.0324912
0.0073447
0.0200117
0.00308037
0.0200117
0.00308037
0.0143286
-0.00408396
0.269204
0.0200117
0.107431
0.0143286
0.981366
0.895435
0.985068
0.869668
0.895435
0.359774
0.869668
0.269204
0.869668
0.269204
0.694323
0.107431
0.985068
0.869668
0.980307
0.694323
0.999465
1.00351
0.999992
1.00041
0.999992
1.00041
0.999358
0.995806
1.00351
0.981366
1.00041
0.985068
1.00041
0.985068
0.995806
0.980307
0.00389603
-0.000496949
0.0073447
-0.00239072
0.118197
0.0186395
0.265596
0.0314044
0.0186395
0.000399268
0.0314044
0.00389603
0.0314044
0.00389603
0.0324912
0.0073447
0.265596
0.0314044
0.359774
0.0324912
0.825741
0.482764
0.958167
0.790192
0.482764
0.118197
0.790192
0.265596
0.790192
0.265596
0.895435
0.359774
0.958167
0.790192
0.981366
0.895435
0.992199
0.961981
0.996708
0.990991
0.996708
0.990991
0.999465
1.00351
0.961981
0.825741
0.990991
0.958167
0.990991
0.958167
1.00351
0.981366
0.00836892
0.00128102
0.0385455
0.00455021
0.00128102
5.21825e-05
0.00455021
0.00102888
0.00455021
0.00102888
0.0186395
0.000399268
0.0385455
0.00455021
0.118197
0.0186395
0.246107
0.0512383
0.508812
0.163278
0.0512383
0.00836892
0.163278
0.0385455
0.163278
0.0385455
0.482764
0.118197
0.508812
0.163278
0.825741
0.482764
0.945525
0.711319
0.98232
0.883584
0.98232
0.883584
0.992199
0.961981
0.711319
0.246107
0.883584
0.508812
0.883584
0.508812
0.961981
0.825741
1.00415
0.989928
0.998686
1.00136
0.989928
0.945525
1.00136
0.992199
0.000872763
-0.000254416
0.000377904
0.000944983
0.000377903
0.000944983
0.00836892
0.00128102
0.0281907
0.00262795
0.086237
0.0163027
0.00262795
0.000872763
0.0163027
0.000377903
0.0163027
0.000377904
0.0512383
0.00836892
0.086237
0.0163027
0.246107
0.0512383
0.634955
0.183474
0.834646
0.407084
0.183474
0.0281907
0.407084
0.086237
0.407084
0.086237
0.711319
0.246107
0.834646
0.407084
0.945525
0.711319
0.00960682
-0.00108582
0.0555265
0.00154876
0.927967
0.856828
1.00389
0.97007
1.00389
0.97007
1.00415
0.989928
0.856828
0.634955
0.97007
0.834646
0.97007
0.834646
0.989928
0.945525
0.994941
0.975999
0.997542
1.00026
0.975999
0.927967
1.00026
1.00415
0.59272
0.597424
0.746007
0.574346
0.291556
0.135817
0.550597
0.452693
0.550597
0.452693
0.572901
0.577794
0.597424
0.550597
0.574346
0.572901
0.135817
0.0555265
0.452693
0.239973
0.0555265
0.00154876
0.239973
0.0160562
0.239973
0.0160562
0.373419
0.0431025
0.452693
0.239973
0.577794
0.373419
0.00649055
-0.00351747
0.012706
-0.00560465
0.0160562
0.00649055
0.0431025
0.012706
-0.00235879
0.00112704
0.000872763
-0.000254416
0.0431025
0.012706
0.0451466
0.00714159
0.012706
-0.00560465
0.00714159
-0.00235879
0.00714159
-0.00235879
0.00262795
0.000872763
0.0451466
0.00714159
0.0281907
0.00262795
0.577794
0.373419
0.612898
0.301654
0.373419
0.0431025
0.301654
0.0451466
0.301654
0.0451466
0.183474
0.0281907
0.612898
0.301654
0.634955
0.183474
0.574346
0.572901
0.73216
0.679292
0.572901
0.577794
0.679292
0.612898
0.679292
0.612898
0.856828
0.634955
0.73216
0.679292
0.927967
0.856828
0.746007
0.574346
0.890645
0.73216
0.890645
0.73216
0.975999
0.927967
3.3154e-06
-1.71389e-06
-7.86084e-07
2.52747e-07
-1.71389e-06
9.46328e-07
2.52747e-07
-1.45216e-07
9.46328e-07
-5.59311e-07
-1.45216e-07
1.18083e-07
-5.59311e-07
3.50117e-07
1.18083e-07
-1.14732e-07
3.50117e-07
3.07855e-07
-1.14732e-07
-4.81311e-08
-3.407e-07
5.28543e-07
4.23835e-06
-1.58416e-06
5.28542e-07
-7.86084e-07
-1.58416e-06
1.10986e-06
-7.86083e-07
2.52747e-07
1.10986e-06
-4.2488e-07
2.52747e-07
-1.45216e-07
-4.2488e-07
2.19108e-07
-1.45216e-07
1.18083e-07
2.19108e-07
-1.22359e-07
1.18083e-07
-1.14732e-07
-1.22359e-07
7.25158e-08
-1.14732e-07
-4.81311e-08
7.25158e-08
3.95896e-08
4.23835e-06
-1.58416e-06
8.1401e-06
1.61087e-05
-1.58416e-06
1.10986e-06
1.61087e-05
-5.76432e-06
1.10986e-06
-4.2488e-07
-5.76432e-06
1.81991e-06
-4.2488e-07
2.19108e-07
1.81991e-06
-1.23988e-06
2.19108e-07
-1.22359e-07
-1.23988e-06
7.24924e-07
-1.22359e-07
7.25158e-08
7.24924e-07
-4.77885e-07
7.25158e-08
3.95896e-08
-4.77885e-07
-3.50358e-07
8.1401e-06
1.539e-05
-6.36756e-05
9.5264e-05
1.539e-05
1.61087e-05
9.5264e-05
6.99967e-05
1.61087e-05
-5.76432e-06
6.99967e-05
-1.61045e-06
-5.76432e-06
1.81991e-06
-1.61045e-06
6.88589e-07
1.81991e-06
-1.23988e-06
6.88588e-07
-3.04032e-07
-1.23988e-06
7.24924e-07
-3.04031e-07
1.64598e-07
7.24924e-07
-4.77885e-07
1.64599e-07
-7.70162e-08
-4.77885e-07
-3.50358e-07
-7.70165e-08
-1.03501e-07
-6.36756e-05
9.5264e-05
-0.000256162
0.000269247
9.5264e-05
6.99967e-05
0.000269247
2.24415e-05
6.99967e-05
7.71665e-06
2.24415e-05
-7.76532e-05
7.71665e-06
-1.61045e-06
-7.76532e-05
2.45435e-05
-1.61045e-06
6.88588e-07
2.45435e-05
-1.88086e-05
6.88588e-07
-3.04032e-07
-1.88086e-05
1.04221e-05
-3.04031e-07
1.64599e-07
1.04221e-05
-6.17871e-06
1.64598e-07
-7.70162e-08
-6.17871e-06
3.8113e-06
-7.70164e-08
-1.03501e-07
3.8113e-06
3.49821e-06
2.24415e-05
-7.76532e-05
-4.2857e-05
4.07336e-05
-7.76532e-05
2.45435e-05
4.07336e-05
-2.09711e-05
2.45435e-05
-1.88086e-05
-2.09711e-05
1.02075e-05
-1.88086e-05
1.04221e-05
1.02075e-05
-7.18391e-06
1.04221e-05
-6.17871e-06