# vtk DataFile Version 2.0
Hex test
ASCII
DATASET UNSTRUCTURED_GRID
POINTS 8968 float
26 12 0
26 13 0
28 12 0
28 13 0
26 13 0
26 14 0
28 13 0
28 14 0
26 14 0
26 16 0
28 14 0
28 16 0
26 16 0
26 18 0
28 16 0
28 18 0
26 18 0
26 20 0
28 18 0
28 20 0
26 20 0
26 22 0
28 20 0
28 22 0
26 22 0
26 24 0
28 22 0
28 24 0
28 12 0
28 13 0
30 12 0
30 13 0
28 13 0
28 14 0
30 13 0
30 14 0
28 14 0
28 16 0
30 14 0
30 16 0
28 16 0
28 18 0
30 16 0
30 18 0
28 18 0
28 20 0
30 18 0
30 20 0
28 20 0
28 22 0
30 20 0
30 22 0
30 14 0
30 15 0
32 14 0
32 15 0
30 15 0
30 16 0
32 15 0
32 16 0
30 16 0
30 18 0
32 16 0
32 18 0
30 18 0
30 20 0
32 18 0
32 20 0
30 20 0
30 22 0
32 20 0
32 22 0
32 14 0
32 15 0
34 14 0
34 15 0
32 15 0
32 16 0
34 15 0
34 16 0
32 16 0
32 17 0
34 16 0
34 17 0
32 17 0
32 18 0
34 17 0
34 18 0
32 18 0
32 19 0
34 18 0
34 19 0
32 19 0
32 20 0
34 19 0
34 20 0
32 20 0
32 21 0
34 20 0
34 21 0
32 21 0
32 22 0
34 21 0
34 22 0
34 16 0
34 17 0
36 16 0
36 17 0
34 17 0
34 18 0
36 17 0
36 18 0
34 18 0
34 19 0
36 18 0
36 19 0
34 19 0
34 20 0
36 19 0
36 20 0
34 20 0
34 21 0
36 20 0
36 21 0
34 21 0
34 22 0
36 21 0
36 22 0
40 16 0
40 17 0
41 16 0
41 17 0
40 14 0
40 15 0
41 14 0
41 15 0
40 15 0
40 16 0
41 15 0
41 16 0
40 12 0
40 13 0
41 12 0
41 13 0
40 13 0
40 14 0
41 13 0
41 14 0
41 13 0
41 14 0
42 13 0
42 14 0
41 12 0
41 13 0
42 12 0
42 13 0
40 10 0
40 11 0
41 10 0
41 11 0
40 11 0
40 12 0
41 11 0
41 12 0
41 11 0
41 12 0
42 11 0
42 12 0
38 20 0
38 21 0
39 20 0
39 21 0
38 18 0
38 19 0
39 18 0
39 19 0
38 19 0
38 20 0
39 19 0
39 20 0
39 18 0
39 19 0
40 18 0
40 19 0
38 16 0
38 17 0
39 16 0
39 17 0
38 17 0
38 18 0
39 17 0
39 18 0
39 17 0
39 18 0
40 17 0
40 18 0
39 16 0
39 17 0
40 16 0
40 17 0
38 14 0
38 15 0
39 14 0
39 15 0
38 15 0
38 16 0
39 15 0
39 16 0
39 15 0
39 16 0
40 15 0
40 16 0
39 14 0
39 15 0
40 14 0
40 15 0
38 12 0
38 13 0
39 12 0
39 13 0
38 13 0
38 14 0
39 13 0
39 14 0
39 13 0
39 14 0
40 13 0
40 14 0
39 12 0
39 13 0
40 12 0
40 13 0
38 10 0
38 11 0
39 10 0
39 11 0
38 11 0
38 12 0
39 11 0
39 12 0
39 11 0
39 12 0
40 11 0
40 12 0
39 10 0
39 11 0
40 10 0
40 11 0
38 9 0
38 10 0
39 9 0
39 10 0
39 9 0
39 10 0
40 9 0
40 10 0
36 20 0
36 21 0
38 20 0
38 21 0
36 21 0
36 22 0
38 21 0
38 22 0
36 18 0
36 19 0
38 18 0
38 19 0
36 19 0
36 20 0
38 19 0
38 20 0
36 16 0
36 17 0
38 16 0
38 17 0
36 17 0
36 18 0
38 17 0
38 18 0
36 14 0
36 15 0
37 14 0
37 15 0
37 14 0
37 15 0
38 14 0
38 15 0
36 15 0
36 16 0
37 15 0
37 16 0
37 15 0
37 16 0
38 15 0
38 16 0
36 12 0
36 13 0
37 12 0
37 13 0
36 13 0
36 14 0
37 13 0
37 14 0
37 13 0
37 14 0
38 13 0
38 14 0
37 12 0
37 13 0
38 12 0
38 13 0
36 10 0
36 11 0
37 10 0
37 11 0
36 11 0
36 12 0
37 11 0
37 12 0
37 11 0
37 12 0
38 11 0
38 12 0
37 10 0
37 11 0
38 10 0
38 11 0
36 8 0
36 9 0
37 8 0
37 9 0
36 9 0
36 10 0
37 9 0
37 10 0
37 9 0
37 10 0
38 9 0
38 10 0
37 8 0
37 9 0
38 8 0
38 9 0
36 6 0
36 7 0
37 6 0
37 7 0
36 7 0
36 8 0
37 7 0
37 8 0
37 7 0
37 8 0
38 7 0
38 8 0
34 14 0
34 15 0
36 14 0
36 15 0
34 15 0
34 16 0
36 15 0
36 16 0
34 12 0
34 13 0
35 12 0
35 13 0
35 12 0
35 13 0
36 12 0
36 13 0
34 13 0
34 14 0
35 13 0
35 14 0
35 13 0
35 14 0
36 13 0
36 14 0
34 10 0
34 11 0
35 10 0
35 11 0
34 11 0
34 12 0
35 11 0
35 12 0
35 11 0
35 12 0
36 11 0
36 12 0
35 10 0
35 11 0
36 10 0
36 11 0
34 8 0
34 9 0
35 8 0
35 9 0
34 9 0
34 10 0
35 9 0
35 10 0
35 9 0
35 10 0
36 9 0
36 10 0
35 8 0
35 9 0
36 8 0
36 9 0
34 6 0
34 7 0
35 6 0
35 7 0
34 7 0
34 8 0
35 7 0
35 8 0
35 7 0
35 8 0
36 7 0
36 8 0
35 6 0
35 7 0
36 6 0
36 7 0
32 12 0
32 13 0
33 12 0
33 13 0
33 12 0
33 13 0
34 12 0
34 13 0
32 13 0
32 14 0
33 13 0
33 14 0
33 13 0
33 14 0
34 13 0
34 14 0
32 10 0
32 11 0
33 10 0
33 11 0
32 11 0
32 12 0
33 11 0
33 12 0
33 11 0
33 12 0
34 11 0
34 12 0
33 10 0
33 11 0
34 10 0
34 11 0
32 8 0
32 9 0
33 8 0
33 9 0
32 9 0
32 10 0
33 9 0
33 10 0
33 9 0
33 10 0
34 9 0
34 10 0
33 8 0
33 9 0
34 8 0
34 9 0
32 7 0
32 8 0
33 7 0
33 8 0
33 7 0
33 8 0
34 7 0
34 8 0
30 12 0
30 13 0
32 12 0
32 13 0
30 13 0
30 14 0
32 13 0
32 14 0
30 10 0
30 11 0
31 10 0
31 11 0
31 10 0
31 11 0
32 10 0
32 11 0
30 11 0
30 12 0
31 11 0
31 12 0
31 11 0
31 12 0
32 11 0
32 12 0
30 8 0
30 9 0
31 8 0
31 9 0
30 9 0
30 10 0
31 9 0
31 10 0
31 9 0
31 10 0
32 9 0
32 10 0
31 8 0
31 9 0
32 8 0
32 9 0
31 7 0
31 8 0
32 7 0
32 8 0
28 10 0
28 11 0
29 10 0
29 11 0
29 10 0
29 11 0
30 10 0
30 11 0
28 11 0
28 12 0
29 11 0
29 12 0
29 11 0
29 12 0
30 11 0
30 12 0
28 9 0
28 10 0
29 9 0
29 10 0
29 9 0
29 10 0
30 9 0
30 10 0
46 10 0
46 11 0
48 10 0
48 11 0
46 11 0
46 12 0
48 11 0
48 12 0
46 12 0
46 13 0
48 12 0
48 13 0
46 13 0
46 14 0
48 13 0
48 14 0
46 14 0
46 15 0
48 14 0
48 15 0
46 15 0
46 16 0
48 15 0
48 16 0
46 16 0
46 17 0
48 16 0
48 17 0
46 17 0
46 18 0
48 17 0
48 18 0
46 18 0
46 19 0
48 18 0
48 19 0
46 19 0
46 20 0
48 19 0
48 20 0
46 20 0
46 21 0
48 20 0
48 21 0
46 21 0
46 22 0
48 21 0
48 22 0
46 22 0
46 23 0
48 22 0
48 23 0
46 23 0
46 24 0
48 23 0
48 24 0
46 24 0
46 25 0
48 24 0
48 25 0
46 25 0
46 26 0
48 25 0
48 26 0
48 10 0
48 11 0
50 10 0
50 11 0
48 11 0
48 12 0
50 11 0
50 12 0
48 12 0
48 13 0
50 12 0
50 13 0
48 13 0
48 14 0
50 13 0
50 14 0
48 14 0
48 15 0
50 14 0
50 15 0
48 15 0
48 16 0
50 15 0
50 16 0
48 16 0
48 17 0
50 16 0
50 17 0
48 17 0
48 18 0
50 17 0
50 18 0
48 18 0
48 19 0
50 18 0
50 19 0
48 19 0
48 20 0
50 19 0
50 20 0
48 20 0
48 21 0
50 20 0
50 21 0
48 21 0
48 22 0
50 21 0
50 22 0
48 22 0
48 23 0
50 22 0
50 23 0
48 23 0
48 24 0
50 23 0
50 24 0
48 24 0
48 25 0
50 24 0
50 25 0
48 25 0
48 26 0
50 25 0
50 26 0
50 10 0
50 12 0
52 10 0
52 12 0
50 12 0
50 14 0
52 12 0
52 14 0
50 14 0
50 16 0
52 14 0
52 16 0
50 16 0
50 18 0
52 16 0
52 18 0
50 18 0
50 20 0
52 18 0
52 20 0
50 20 0
50 22 0
52 20 0
52 22 0
50 22 0
50 24 0
52 22 0
52 24 0
50 24 0
50 26 0
52 24 0
52 26 0
52 10 0
52 12 0
54 10 0
54 12 0
52 12 0
52 14 0
54 12 0
54 14 0
52 14 0
52 16 0
54 14 0
54 16 0
52 16 0
52 18 0
54 16 0
54 18 0
52 18 0
52 20 0
54 18 0
54 20 0
52 20 0
52 22 0
54 20 0
54 22 0
52 22 0
52 24 0
54 22 0
54 24 0
52 24 0
52 26 0
54 24 0
54 26 0
54 10 0
54 12 0
56.1667 10 0
56.1667 12 0
54 12 0
54 14 0
56.1667 12 0
56.1667 14 0
54 14 0
54 16 0
56.1667 14 0
56.1667 16 0
54 16 0
54 18 0
56.1667 16 0
56.1667 18 0
54 18 0
54 20 0
56.1667 18 0
56.1667 20 0
54 20 0
54 22 0
56.1667 20 0
56.1667 22 0
54 22 0
54 24 0
56.1667 22 0
56.1667 24 0
54 24 0
54 26 0
56.1667 24 0
56.1667 26 0
56.1667 10 0
56.1667 12 0
60 10 0
60 12 0
56.1667 12 0
56.1667 14 0
60 12 0
60 14 0
56.1667 14 0
56.1667 16 0
60 14 0
60 16 0
56.1667 16 0
56.1667 18 0
60 16 0
60 18 0
56.1667 18 0
56.1667 20 0
60 18 0
60 20 0
56.1667 20 0
56.1667 22 0
60 20 0
60 22 0
56.1667 22 0
56.1667 24 0
60 22 0
60 24 0
56.1667 24 0
56.1667 26 0
60 24 0
60 26 0
44 24 0
44 25 0
46 24 0
46 25 0
44 25 0
44 26 0
46 25 0
46 26 0
44 22 0
44 23 0
46 22 0
46 23 0
44 23 0
44 24 0
46 23 0
46 24 0
44 20 0
44 21 0
46 20 0
46 21 0
44 21 0
44 22 0
46 21 0
46 22 0
44 18 0
44 19 0
46 18 0
46 19 0
44 19 0
44 20 0
46 19 0
46 20 0
44 16 0
44 17 0
46 16 0
46 17 0
44 17 0
44 18 0
46 17 0
46 18 0
44 14 0
44 15 0
46 14 0
46 15 0
44 15 0
44 16 0
46 15 0
46 16 0
44 12 0
44 13 0
46 12 0
46 13 0
44 13 0
44 14 0
46 13 0
46 14 0
44 10 0
44 11 0
46 10 0
46 11 0
44 11 0
44 12 0
46 11 0
46 12 0
42 26 0
42 27 0
43 26 0
43 27 0
43 26 0
43 27 0
44 26 0
44 27 0
42 24 0
42 25 0
43 24 0
43 25 0
42 25 0
42 26 0
43 25 0
43 26 0
43 25 0
43 26 0
44 25 0
44 26 0
43 24 0
43 25 0
44 24 0
44 25 0
42 22 0
42 23 0
43 22 0
43 23 0
42 23 0
42 24 0
43 23 0
43 24 0
43 23 0
43 24 0
44 23 0
44 24 0
43 22 0
43 23 0
44 22 0
44 23 0
42 20 0
42 21 0
43 20 0
43 21 0
42 21 0
42 22 0
43 21 0
43 22 0
43 21 0
43 22 0
44 21 0
44 22 0
43 20 0
43 21 0
44 20 0
44 21 0
42 18 0
42 19 0
43 18 0
43 19 0
42 19 0
42 20 0
43 19 0
43 20 0
43 19 0
43 20 0
44 19 0
44 20 0
43 18 0
43 19 0
44 18 0
44 19 0
42 16 0
42 17 0
43 16 0
43 17 0
42 17 0
42 18 0
43 17 0
43 18 0
43 17 0
43 18 0
44 17 0
44 18 0
43 16 0
43 17 0
44 16 0
44 17 0
42 14 0
42 15 0
43 14 0
43 15 0
42 15 0
42 16 0
43 15 0
43 16 0
43 15 0
43 16 0
44 15 0
44 16 0
43 14 0
43 15 0
44 14 0
44 15 0
42 12 0
42 13 0
43 12 0
43 13 0
42 13 0
42 14 0
43 13 0
43 14 0
43 13 0
43 14 0
44 13 0
44 14 0
43 12 0
43 13 0
44 12 0
44 13 0
42 11 0
42 12 0
43 11 0
43 12 0
43 11 0
43 12 0
44 11 0
44 12 0
41 26 0
41 27 0
42 26 0
42 27 0
40 24 0
40 25 0
41 24 0
41 25 0
40 25 0
40 26 0
41 25 0
41 26 0
41 25 0
41 26 0
42 25 0
42 26 0
41 24 0
41 25 0
42 24 0
42 25 0
40 22 0
40 23 0
41 22 0
41 23 0
40 23 0
40 24 0
41 23 0
41 24 0
41 23 0
41 24 0
42 23 0
42 24 0
41 22 0
41 23 0
42 22 0
42 23 0
40 20 0
40 21 0
41 20 0
41 21 0
40 21 0
40 22 0
41 21 0
41 22 0
41 21 0
41 22 0
42 21 0
42 22 0
41 20 0
41 21 0
42 20 0
42 21 0
40 18 0
40 19 0
41 18 0
41 19 0
40 19 0
40 20 0
41 19 0
41 20 0
41 19 0
41 20 0
42 19 0
42 20 0
41 18 0
41 19 0
42 18 0
42 19 0
40 17 0
40 18 0
41 17 0
41 18 0
41 17 0
41 18 0
42 17 0
42 18 0
41 16 0
41 17 0
42 16 0
42 17 0
41 15 0
41 16 0
42 15 0
42 16 0
41 14 0
41 15 0
42 14 0
42 15 0
39 24 0
39 25 0
40 24 0
40 25 0
38 22 0
38 23 0
39 22 0
39 23 0
39 23 0
39 24 0
40 23 0
40 24 0
39 22 0
39 23 0
40 22 0
40 23 0
38 21 0
38 22 0
39 21 0
39 22 0
39 21 0
39 22 0
40 21 0
40 22 0
39 20 0
39 21 0
40 20 0
40 21 0
39 19 0
39 20 0
40 19 0
40 20 0
38 -12 0
38 -8.16667 0
40 -12 0
40 -8.16667 0
38 -8.16667 0
38 -6 0
40 -8.16667 0
40 -6 0
38 -6 0
38 -4 0
40 -6 0
40 -4 0
38 -4 0
38 -2 0
40 -4 0
40 -2 0
38 -2 0
38 5.55112e-17 0
40 -2 0
40 3.46945e-17 0
40 -12 0
40 -8.16667 0
42 -12 0
42 -8.16667 0
40 -8.16667 0
40 -6 0
42 -8.16667 0
42 -6 0
40 -6 0
40 -4 0
42 -6 0
42 -4 0
40 -4 0
40 -2 0
42 -4 0
42 -2 0
40 -2 0
40 6.245e-17 0
42 -2 0
42 5.55112e-17 0
40 2.77556e-17 0
40 1 0
42 2.77556e-17 0
42 1 0
40 1 0
40 2 0
42 1 0
42 2 0
42 -12 0
42 -8.16667 0
44 -12 0
44 -8.16667 0
42 -8.16667 0
42 -6 0
44 -8.16667 0
44 -6 0
42 -6 0
42 -4 0
44 -6 0
44 -4 0
42 -4 0
42 -2 0
44 -4 0
44 -2 0
42 -2 0
42 0 0
44 -2 0
44 -2.77556e-17 0
42 5.55112e-17 0
42 1 0
44 2.77556e-17 0
44 1 0
42 1 0
42 2 0
44 1 0
44 2 0
42 2 0
42 3 0
44 2 0
44 3 0
42 3 0
42 4 0
44 3 0
44 4 0
42 4 0
42 5 0
44 4 0
44 5 0
42 5 0
42 6 0
44 5 0
44 6 0
44 -12 0
44 -8.16667 0
[...]
POINT_DATA 8968
SCALARS phi float 1
LOOKUP_TABLE default
0.999812
1.00648
1.00151
1.00344
1.00648
1.00047
1.00344
1.00216
1.00047
1.00081
1.00216
0.999282
1.00081
1
0.999282
0.999401
1
1.0006
0.999401
0.999197
1.0006
1.00026
0.999197
0.999242
1.00026
1.00052
0.999242
0.999144
1.00151
1.00344
1.0003
1.00036
1.00344
1.00216
1.00036
0.997869
1.00216
0.999282
0.997869
1.00079
0.999282
0.999401
1.00079
1.00099
0.999401
0.999197
1.00099
1.00146
0.999197
0.999242
1.00146
1.00141
0.997869
0.998554
1.00362
1.00094
0.998554
1.00079
1.00094
0.996525
1.00079
1.00099
0.996525
0.996567
1.00099
1.00146
0.996567
0.997707
1.00146
1.00141
0.997707
0.997687
1.00362
1.00094
0.989442
0.996036
1.00094
0.996525
0.996036
1.00128
0.996525
0.995476
1.00128
1.00095
0.995476
0.996567
1.00095
1.00365
0.996567
0.997395
1.00365
1.00449
0.997395
0.997707
1.00449
1.00499
0.997707
0.997756
1.00499
1.00585
0.997756
0.997687
1.00585
1.00606
1.00128
1.00095
0.988112
0.9894
1.00095
1.00365
0.9894
0.993443
1.00365
1.00449
0.993443
0.993401
1.00449
1.00499
0.993401
0.992627
1.00499
1.00585
0.992627
0.992637
1.00585
1.00606
0.992637
0.992776
0.0819735
0.0161661
0.0131341
0.00468478
0.112696
0.0775787
0.0192258
0.0185484
0.0775787
0.0819735
0.0185484
0.0131341
0.0386811
0.0926338
0.00833034
0.014261
0.0926338
0.112696
0.014261
0.0192258
0.014261
0.0192258
-0.00466041
-0.010176
0.00833034
0.014261
-0.00196838
-0.00466041
-0.000783019
0.0143384
0.00046183
-0.000231416
0.0143384
0.0386811
-0.000231416
0.00833034
-0.000231416
0.00833034
0.000867579
-0.00196838
0.74468
0.749575
0.151165
0.16
0.724893
0.729997
0.134169
0.13481
0.729997
0.74468
0.13481
0.151165
0.134169
0.13481
0.0127499
0.00780735
0.837545
0.787225
0.481185
0.253238
0.787225
0.724893
0.253238
0.134169
0.253238
0.134169
0.0161661
0.0127499
0.481185
0.253238
0.0819735
0.0161661
0.61064
0.748311
0.507028
0.526638
0.748311
0.837545
0.526638
0.481185
0.526638
0.481185
0.0775787
0.0819735
0.507028
0.526638
0.112696
0.0775787
0.588286
0.649554
0.262545
0.421636
0.649554
0.61064
0.421636
0.507028
0.421636
0.507028
0.0926337
0.112696
0.262545
0.421636
0.0386811
0.0926337
-0.0072544
0.24707
-0.000567905
0.0687019
0.24707
0.588286
0.0687019
0.262545
0.0687019
0.262545
0.0143384
0.0386811
-0.000567904
0.0687019
-0.000783019
0.0143384
0.00963318
-0.0072544
0.00151953
-0.000567904
0.00151953
-0.000567905
0.000722584
-0.000783018
0.992627
0.992637
0.74468
0.749575
0.992637
0.992776
0.749575
0.749379
0.993443
0.993401
0.724893
0.729997
0.993401
0.992627
0.729997
0.74468
0.988112
0.9894
0.837545
0.787225
0.9894
0.993443
0.787225
0.724893
0.893385
0.9584
0.653793
0.85511
0.653793
0.85511
0.61064
0.748311
0.9584
0.988112
0.85511
0.974497
0.85511
0.974497
0.748311
0.837545
0.75063
0.885637
0.73054
0.707452
0.885637
0.893385
0.707452
0.653793
0.707452
0.653793
0.649554
0.61064
0.73054
0.707452
0.588286
0.649554
0.022684
0.205562
0.00666861
0.312075
0.205562
0.75063
0.312075
0.73054
0.312075
0.73054
0.24707
0.588286
0.00666861
0.312075
-0.0072544
0.24707
0.00604224
0.000860712
-0.00774448
0.00818841
0.000860712
0.022684
0.00818841
0.00666861
0.00818841
0.00666861
0.00963318
-0.0072544
-0.00774448
0.00818841
-0.00444744
0.00963318
0.000999752
0.00163245
-0.00169095
0.00103652
0.00163245
0.00604224
0.00103652
-0.00774448
0.00103652
-0.00774448
0.00160538
-0.00444744
0.989442
0.996036
0.893385
0.9584
0.996036
1.00128
0.9584
0.988112
0.827259
0.97392
0.649929
0.942047
0.649929
0.942047
0.75063
0.885637
0.97392
0.989442
0.942047
0.997904
0.942047
0.997904
0.885637
0.893385
0.206705
0.32009
0.0363086
0.112826
0.32009
0.827259
0.112826
0.64993
0.112826
0.64993
0.205562
0.75063
0.0363086
0.112826
0.022684
0.205562
0.240548
0.267727
0.0176607
0.0392878
0.267727
0.206705
0.0392878
0.0363086
0.0392878
0.0363086
0.000860712
0.022684
0.0176607
0.0392878
0.00604224
0.000860712
0.028146
0.135574
-9.70915e-06
0.00156042
0.135574
0.240548
0.00156041
0.0176607
0.00156042
0.0176607
0.00163245
0.00604224
-9.70908e-06
0.00156042
0.000999752
0.00163245
0.986265
1.00035
0.947967
0.985773
0.947967
0.985773
0.827259
0.97392
1.00035
1.00362
0.985773
0.991323
0.985773
0.991323
0.97392
0.989442
0.887277
0.951933
0.648087
0.776912
0.951933
0.986265
0.776912
0.947967
0.776912
0.947967
0.32009
0.827259
0.648087
0.776912
0.206705
0.32009
0.587066
0.730497
0.550134
0.652241
0.730497
0.887277
0.652241
0.648087
0.652241
0.648087
0.267727
0.206705
0.550134
0.652241
0.240548
0.267727
0.545484
0.587066
0.410913
0.550134
0.410913
0.550134
0.135574
0.240548
1.0003
1.00036
0.986265
1.00035
1.00036
0.997869
1.00035
1.00362
0.975958
0.995768
0.946646
0.986452
0.946646
0.986452
0.887277
0.951933
0.995768
1.0003
0.986452
0.998194
0.986452
0.998194
0.951933
0.986265
0.748943
0.923486
0.616353
0.79967
0.923486
0.975958
0.79967
0.946646
0.79967
0.946646
0.730497
0.887277
0.616353
0.79967
0.587066
0.730497
0.608665
0.616354
0.545484
0.587066
0.978259
0.99621
0.98831
1.00034
0.98831
1.00034
0.975958
0.995768
0.99621
1.00151
1.00034
1.0011
1.00034
1.0011
0.995768
1.0003
0.827905
0.978259
0.960964
0.98831
0.960964
0.98831
0.923486
0.975958
4.0387e-06
-1.82446e-05
2.95599e-05
-5.65401e-06
-1.82446e-05
0.000138926
-5.65401e-06
4.46449e-05
0.000138926
0.000136848
4.46449e-05
-0.000170728
0.000136848
-2.6199e-05
-0.000170728
-0.000294533
-2.61992e-05
6.98642e-05
-0.000294533
-0.000219971
6.98642e-05
0.000186291
-0.000219971
-0.000190441
0.000186291
0.000182795
-0.000190441
-1.62861e-06
0.000182795
-4.01563e-05
-1.62861e-06
-5.70668e-05
-4.01563e-05
-7.98052e-05
-5.70668e-05
-7.33625e-05
-7.98052e-05
4.24388e-05
-7.33625e-05
-8.86351e-05
4.24388e-05
7.87533e-06
-8.86351e-05
-6.19819e-05
7.87533e-06
2.14151e-05
-6.19819e-05
-5.1298e-06
2.14151e-05
-2.82121e-07
-5.1298e-06
2.3706e-05
-2.82121e-07
-1.9788e-05
2.3706e-05
1.60415e-05
-1.9788e-05
-1.98646e-05
1.60415e-05
8.37693e-06
-1.98646e-05
-2.37857e-05
8.37693e-06
1.7392e-05
2.95599e-05
-5.65401e-06
-8.12352e-06
1.34624e-05
-5.65401e-06
4.46449e-05
1.34624e-05
5.88657e-05
4.46449e-05
-0.000170728
5.88657e-05
0.000119457
-0.000170728
-0.000294533
0.000119457
0.0001646
-0.000294533
-0.000219971
0.0001646
0.000165355
-0.000219971
-0.000190441
0.000165355
0.000121564
-0.000190441
-1.6286e-06
0.000121564
4.66517e-05
-1.6286e-06
-5.70668e-05
4.66517e-05
-2.04134e-05
-5.70668e-05
-7.33625e-05
-2.04134e-05
-4.54629e-05
-7.33625e-05
-8.86351e-05
-4.54629e-05
-3.90677e-05
-8.86351e-05
-6.19819e-05
-3.90677e-05
-2.16962e-05
-6.19819e-05
-5.1298e-06
-2.16962e-05
-8.66775e-06
-5.1298e-06
2.3706e-05
-8.66775e-06
-9.00737e-06
2.3706e-05
1.60415e-05
-9.00737e-06
-1.17095e-05
1.60415e-05
8.37693e-06
-1.17095e-05
-6.4905e-06
8.37693e-06
1.7392e-05
-6.4905e-06
-5.98475e-06
-8.12352e-06
5.88657e-05
4.0526e-06
-2.09693e-05
5.88657e-05
0.0001646
-2.09693e-05
-8.47847e-05
0.0001646
0.000121564
-8.47847e-05
-5.71889e-05
0.000121564
-2.04134e-05
-5.71889e-05
8.09572e-06
-2.04134e-05
-3.90677e-05
8.09572e-06
4.56951e-06
-3.90677e-05
-8.66775e-06
4.56951e-06
2.64396e-06
-8.66775e-06
-1.17095e-05
2.64396e-06
5.03004e-06
-1.17095e-05
-5.98475e-06
5.03004e-06
4.20077e-06
4.0526e-06
-2.09694e-05
-2.40986e-06
1.28508e-05
-2.09694e-05
-8.47847e-05
1.28508e-05
4.85804e-05
-8.47847e-05
-5.71889e-05
4.85804e-05
3.29111e-05
-5.71889e-05
8.09572e-06
3.29111e-05
-4.83772e-06
8.09572e-06
4.56951e-06
-4.83772e-06
-2.76409e-06
4.56951e-06
2.64396e-06
-2.76409e-06
-1.53108e-06
2.64396e-06
5.03004e-06
-1.53108e-06
-2.8013e-06
5.03004e-06
4.20077e-06
-2.8013e-06
-2.37781e-06
-2.40986e-06
1.28508e-05
1.39001e-06
-8.22304e-06
1.28508e-05
4.85804e-05
-8.22305e-06
-2.94203e-05
4.85804e-05
3.29111e-05
-2.94203e-05
-1.91676e-05
3.29111e-05
-4.83773e-06
-1.91676e-05
3.45711e-06
-4.83772e-06
-2.76409e-06
3.45711e-06
1.67638e-06
-2.76409e-06
-1.53108e-06
1.67638e-06
7.79334e-07
-1.53108e-06
-2.8013e-06
7.79334e-07
1.57858e-06
-2.8013e-06
-2.37781e-06
1.57858e-06
1.28572e-06
1.39001e-06
-8.22304e-06
1.82138e-06
-8.34266e-06
-8.22304e-06
-2.94203e-05
-8.34266e-06
-2.42894e-05
-2.94203e-05
-1.91676e-05
-2.42894e-05
-1.82293e-05
-1.91676e-05
3.45711e-06
-1.82293e-05
3.43223e-06
3.45711e-06
1.67638e-06
3.43223e-06
1.39621e-06
1.67638e-06
7.79334e-07
1.39621e-06
1.02031e-06
7.79334e-07
1.57858e-06
1.02031e-06
1.39367e-06
1.57858e-06
1.28572e-06
1.39367e-06
1.40721e-06
-2.1103e-05
-2.81657e-05
-1.9788e-05
-1.98646e-05
-2.81657e-05
-2.99599e-05
-1.98646e-05
-2.37857e-05
-2.02867e-05
-7.18654e-06
2.14151e-05
-2.82119e-07
-7.18654e-06
-2.1103e-05
-2.82119e-07
-1.9788e-05
7.1951e-06
-3.51625e-05
4.24388e-05
7.87533e-06
-3.51625e-05
-2.02867e-05
7.87533e-06
2.14151e-05
-2.94695e-06
4.22473e-05
-4.01563e-05
-7.98051e-05
4.22474e-05
7.19509e-06
-7.98051e-05
4.24388e-05
0.000122081
0.000145389
0.000186291
0.000182795
0.000145389
-2.94696e-06
0.000182795
-4.01563e-05
0.000313418
0.000424434
-2.6199e-05
6.98643e-05
0.000424434
0.000122081
6.98643e-05
0.000186291
0.000132402
0.000133494
0.000138926
0.000136849
0.000133494
0.000313417
0.000136848
-2.6199e-05
2.24062e-05
-6.20891e-05
4.0387e-06
-1.82446e-05
-6.2089e-05
0.000132402
-1.82446e-05
0.000138926
0.000320555
0.000300565
-0.00012002
-0.000118965
-0.00012002
-0.000118965
-2.99599e-05
-2.38799e-05
0.00022058
0.00028475
-8.21486e-05
-0.000105209
0.00028475
0.000320555
-0.000105209
-0.00012002
-0.000105209
-0.00012002
-2.81657e-05
-2.99599e-05
-8.21486e-05
-0.000105209
-2.1103e-05
-2.81657e-05
0.000338767
0.000140133
-0.000156623
-6.39082e-05
0.000140133
0.00022058
-6.39082e-05
-8.21486e-05
-6.39082e-05
-8.21486e-05
-7.18654e-06
-2.1103e-05
-0.000156623
-6.39082e-05
-2.02867e-05
-7.18654e-06
0.000599215
0.000316062
-0.000258845
-0.000148919
0.000316062
0.000338767
-0.000148919
-0.000156623
-0.000148919
-0.000156623
-3.51625e-05
-2.02867e-05
-0.000258845
-0.000148919
7.19512e-06
-3.51625e-05
0.00126876
0.000772048
-0.000447197
-0.000303959
0.000772048
0.000599215
-0.000303959
-0.000258845
-0.000303959
-0.000258845
4.22473e-05
7.19511e-06
-0.000447197
-0.000303959
-2.94695e-06
4.22473e-05
-0.00209122
-0.00181836
0.00101308
0.000661842
-0.00181836
0.00126876
0.000661842
-0.000447196
0.000661842
-0.000447196
0.000145389
-2.94696e-06
0.00101308
0.000661842
0.000122081
0.000145389
-0.010176
-0.00916588
0.00308921
0.00322506
-0.00916588
-0.00209122
0.00322506
0.00101308
0.00322506
0.00101308
0.000424433
0.000122081
0.00308921
0.00322506
0.000313417
0.000424433
-0.00196838
-0.00466041
0.000806908
0.00148157
-0.00466041
-0.010176
0.00148157
0.00308921
0.00148157
0.00308921
0.000133494
0.000313417
0.000806907
0.00148157
0.000132402
0.000133494
0.000867579
-0.00196838
-0.000301711
0.000806907
-0.000301711
0.000806907
-6.20891e-05
0.000132402
-0.000306864
-0.000268398
0.000320554
0.000300565
0.00842409
0.0080779
-9.8285e-05
-0.000226005
0.0080779
0.00850857
-0.000226005
-0.000306864
-0.000226005
-0.000306864
0.00028475
0.000320554
-9.8285e-05
-0.000226005
0.00022058
0.00028475
0.00847375
0.00739553
-0.000305612
6.42865e-05
0.00739553
0.00842409
6.42865e-05
-9.8285e-05
6.42865e-05
-9.82851e-05
0.000140133
0.00022058
-0.000305612
6.42865e-05
0.000338767
0.000140133
0.00901481
0.00841761
-0.000756134
-0.00034663
0.00841761
0.00847375
-0.00034663
-0.000305612
-0.00034663
-0.000305612
0.000316062
0.000338767
-0.000756134
-0.00034663
0.000599215
0.000316062
0.0127499
0.00780735
-0.00192769
-0.00154988
0.00780735
0.00901481
-0.00154988
-0.000756134
-0.00154987
-0.000756134
0.000772048
0.000599215
-0.00192769
-0.00154988
0.00126876
0.000772048
0.0161661
0.0127499
0.00468478
-0.00192769
0.00468478
-0.00192769
-0.00181836
0.00126876
0.0131341
0.00468478
-0.00209122
-0.00181836
0.0185484
0.0131341
-0.00916588
-0.00209122
0.0192258
0.0185484
-0.010176
-0.00916588
0.164337
0.160025
0.00842409
0.0080779
0.749379
0.753043
0.159976
0.163311
0.163311
0.164337
0.00739553
0.00842409
0.159976
0.163311
0.00847375
0.00739553
0.749575
0.749379
0.16
0.159976
0.16
0.159976
0.00841761
0.00847375
0.151165
0.16
0.00901481
0.00841761
0.13481
0.151165
0.00780735
0.00901481
-5.19951e-06
-5.09216e-06
-2.93182e-07
-3.35714e-07
-5.09216e-06
8.03689e-06
-3.35714e-07
5.86509e-07
8.03689e-06
-1.32614e-05
5.8651e-07
-1.08891e-06
-1.32614e-05
1.66773e-05
-1.08891e-06
2.04101e-06
1.66773e-05
1.90408e-05
2.04101e-06
-1.05026e-05
-2.93182e-07
-3.35713e-07
1.45132e-06
1.49857e-06
-3.35714e-07
5.86509e-07
1.49857e-06
-2.24947e-06
5.86509e-07
-1.08891e-06
-2.24947e-06
3.68677e-06
-1.08891e-06
2.041e-06
3.68677e-06
-6.16404e-06
2.041e-06
-1.05026e-05
-6.16404e-06
7.63619e-06
-1.05026e-05
-1.86504e-05
7.63619e-06
-2.01648e-05
-1.86504e-05
-5.59826e-06
-2.01648e-05
2.15316e-06
1.45132e-06
1.49857e-06
1.21515e-07
1.14479e-07
1.49857e-06
-2.24947e-06
1.14479e-07
-1.79972e-07
-2.24947e-06
3.68677e-06
-1.79972e-07
2.89913e-07
3.68677e-06
-6.16404e-06
2.89913e-07
-4.53402e-07
-6.16404e-06
7.63619e-06
-4.53402e-07
-6.72825e-07
7.63619e-06
-2.01648e-05
-6.72824e-07
-8.32861e-06
-2.01648e-05
2.15316e-06
-8.32861e-06
-1.19619e-05
2.15316e-06
-1.22288e-05
-1.19619e-05
-2.62805e-06
-1.22288e-05
2.19052e-05
-2.62805e-06
5.39104e-06
2.19052e-05
-4.01957e-05
5.39104e-06
-6.68967e-06
-4.01957e-05
-3.47071e-05
-6.68967e-06
4.22632e-07
1.21515e-07
1.14479e-07
5.59968e-08
6.28437e-08
1.14479e-07
-1.79972e-07
6.28436e-08
-9.6347e-08
-1.79972e-07
2.89913e-07
-9.6347e-08
1.6267e-07
2.89913e-07
-4.53402e-07
1.6267e-07
-3.02531e-07
-4.53402e-07
-6.72824e-07
-3.02531e-07
1.16273e-06
-6.72824e-07
-1.19619e-05
1.16273e-06
2.8657e-06
-1.19619e-05
-2.62805e-06
2.8657e-06
2.42676e-06
-2.62805e-06
5.39104e-06
2.42676e-06
8.62819e-07
5.39104e-06
-6.68968e-06
8.62819e-07
-1.65368e-06
-6.68968e-06
4.22633e-07
-1.65368e-06
-4.40317e-06
5.59968e-08
6.28436e-08
-3.3289e-08
-3.59957e-08
6.28437e-08
-9.63471e-08
-3.59957e-08
5.35442e-08
-9.6347e-08
1.62669e-07
5.35442e-08
-8.18586e-08
1.62669e-07
-3.02531e-07
-8.18586e-08
1.5538e-07
-3.02531e-07
1.16273e-06
1.5538e-07
-5.29626e-07
1.16273e-06
2.8657e-06
-5.29626e-07
-1.73893e-06
2.8657e-06
8.62819e-07
-1.73893e-06
5.78623e-07
8.62819e-07
-4.40317e-06
5.78623e-07
7.94393e-07
-4.40317e-06
-6.25864e-06
7.94393e-07
2.25534e-06
-6.25864e-06
-8.5762e-06
2.25534e-06
-1.15077e-06
-8.5762e-06
-9.6902e-06
-1.15077e-06
4.02953e-07
-9.6902e-06
4.0387e-06
4.02953e-07
2.95599e-05
-3.3289e-08
-3.59957e-08
3.15687e-08
2.77347e-08
-3.59957e-08
5.35442e-08
2.77347e-08
-6.26916e-08
5.35442e-08
-8.18586e-08
-6.26916e-08
1.16523e-07
-8.18586e-08
1.5538e-07
1.16523e-07
-2.44712e-07
1.5538e-07
-5.29626e-07
-2.44712e-07
5.33881e-07
-5.29626e-07
-1.73893e-06
5.33881e-07
4.62605e-07
-1.73893e-06
5.78623e-07
4.62605e-07
7.04843e-07
5.78623e-07
7.94393e-07
7.04843e-07
-2.49902e-06
7.94393e-07
2.25534e-06
-2.49902e-06
1.15876e-06
2.25534e-06
-1.15077e-06
1.15876e-06
1.49101e-06
-1.15077e-06
4.02952e-07
1.49101e-06
-6.66093e-06
4.02952e-07
2.95599e-05
-6.66093e-06
-8.12352e-06
3.15687e-08
2.77347e-08
-1.35736e-08
-1.34895e-08
2.77347e-08
-6.26917e-08
-1.34895e-08
2.52504e-08
-6.26916e-08
1.16523e-07
2.52504e-08
-4.44127e-08
1.16523e-07
-2.44712e-07
-4.44128e-08
8.83697e-08
-2.44712e-07
5.33881e-07
8.83697e-08
-2.3341e-07
5.33881e-07
4.62605e-07
-2.3341e-07
-3.62891e-07
4.62605e-07
7.04843e-07
-3.62891e-07
-2.05592e-07
7.04843e-07
-2.49902e-06
-2.05592e-07
8.95709e-07
-2.49902e-06
1.49101e-06
8.95709e-07
-7.53443e-08
1.49101e-06
-8.12352e-06
-7.53441e-08
4.0526e-06
-1.35736e-08
-1.34895e-08
8.7693e-09
9.41479e-09
-1.34895e-08
2.52504e-08
9.41479e-09
-1.58084e-08
2.52504e-08
-4.44127e-08
-1.58084e-08
2.69423e-08
-4.44127e-08
8.83697e-08
2.69423e-08
-5.22701e-08
8.83697e-08
-2.3341e-07
-5.22701e-08
1.41278e-07
-2.3341e-07
-3.62891e-07
1.41278e-07
2.04711e-07
-3.62891e-07
-2.05592e-07
2.04711e-07
1.46583e-07
-2.05592e-07
8.95709e-07
1.46583e-07
-5.27961e-07
8.95709e-07
-7.53444e-08
-5.27961e-07
9.23855e-08
-7.53442e-08
4.0526e-06
9.23855e-08
-2.40986e-06
8.7693e-09
9.41479e-09
-6.23572e-09
-7.84051e-09
9.41479e-09
-1.58084e-08
-7.84051e-09
9.99755e-09
-1.58084e-08
2.69423e-08
9.99755e-09
-1.53791e-08
2.69423e-08
-5.22701e-08
-1.53791e-08
2.7497e-08
-5.22701e-08
1.41278e-07
2.7497e-08
-8.73509e-08
1.41278e-07
2.04711e-07
-8.73509e-08
-1.26081e-07
2.04711e-07
1.46583e-07
-1.26081e-07
-1.04072e-07
1.46583e-07
-5.27961e-07
-1.04072e-07
2.7998e-07
-5.27961e-07
9.23856e-08
2.7998e-07
-6.72312e-08
9.23856e-08
-2.40986e-06
-6.72312e-08
1.39001e-06
-6.23572e-09
-7.84051e-09
-6.84813e-09
-7.58761e-09
-7.84051e-09
9.99755e-09
-7.58761e-09
1.19904e-08
9.99755e-09
-1.53791e-08
1.19904e-08
-2.01157e-08
-1.53791e-08
2.7497e-08
-2.01157e-08
3.79607e-08
2.7497e-08
-8.73509e-08
3.79607e-08
-9.85805e-08
-8.73509e-08
-1.26081e-07
-9.85805e-08
-9.5646e-08
-1.26081e-07
-1.04072e-07
-9.5646e-08
-1.65237e-07
-1.04072e-07
2.7998e-07
-1.65237e-07
3.83065e-07
2.7998e-07
-6.72312e-08
3.83065e-07
-2.21417e-07
-6.72313e-08
1.39001e-06
-2.21417e-07
1.82138e-06
-2.52664e-06
-8.83673e-06
-8.5762e-06
-9.69021e-06
-8.83674e-06
2.24062e-05
-9.6902e-06
4.0387e-06
4.22632e-07
-1.08126e-05
-4.40317e-06
-6.25864e-06
-1.08126e-05
-2.52664e-06
-6.25864e-06
-8.5762e-06
-0.000235255
0.000867579
7.86233e-05
-0.000301711
7.86232e-05
-0.000301711
2.24062e-05
-6.20891e-05
8.41369e-05
0.000121857
-3.33515e-05
-4.64493e-05
0.000121857
-0.000235255
-4.64493e-05
7.86232e-05
-4.64493e-05
7.86232e-05
-8.83674e-06
2.24062e-05
-3.33515e-05
-4.64493e-05
-2.52664e-06
-8.83674e-06
-3.47071e-05
-4.91223e-05
-2.18006e-05
-2.89593e-05
-2.18006e-05
-2.89593e-05
4.22631e-07
-1.08126e-05
-4.91223e-05
8.41369e-05
-2.89593e-05
-3.33515e-05
-2.89593e-05
-3.33515e-05
-1.08126e-05
-2.52664e-06
0.00046183
-0.000231416
-0.000235255
0.000867579
-0.000114924
0.000722584
-0.000291302
-0.000213066
0.000722584
-0.000783019
-0.000213065
0.00046183
-0.000213065
0.00046183
0.000121857
-0.000235255
-0.000291302
-0.000213066
8.41369e-05
0.000121857
1.0364e-06
-0.000827067
-1.41106e-05
-0.000199362
-1.41106e-05
-0.000199362
-3.47071e-05
-4.91223e-05
-0.000827067
-0.000114923
-0.000199362
-0.000291302
-0.000199362
-0.000291302
-4.91223e-05
8.41369e-05
-3.09577e-05
0.000211389
2.19052e-05
-4.01957e-05
0.000211389
1.03638e-06
-4.01957e-05
-3.47071e-05
-5.59826e-06
-2.83009e-05
2.15316e-06
-1.22288e-05
-2.83009e-05
-3.09577e-05
-1.22288e-05
2.19052e-05
-0.00444744
0.00963318
-0.00263223
0.00151953
-0.00263223
0.00151953
-0.000114923
0.000722584
-0.00102955
0.00160538
-0.000138119
-0.00129674
0.00160538
-0.00444744
-0.00129674
-0.00263223
-0.00129674
-0.00263223
-0.000827067
-0.000114923
-0.000138119
-0.00129674
1.0364e-06
-0.000827067
-0.000401151
0.000932199
-0.000191803
0.000471453
0.000932199
-0.00102955
0.000471453
-0.000138119
0.000471453
-0.000138119
0.000211389
1.03638e-06
-0.000191803
0.000471453
-3.09577e-05
0.000211389
-8.18532e-05
0.000237933
-4.72829e-05
0.00015514
-4.72829e-05
0.00015514
-5.59826e-06
-2.83009e-05
0.000237933
-0.000401151
0.00015514
-0.000191803
0.00015514
-0.000191803
-2.83009e-05
-3.09577e-05
1.90408e-05
0.000176523
-1.05026e-05
-1.86504e-05
0.000176523
-8.18532e-05
-1.86504e-05
-5.59826e-06
-0.00169095
0.00103652
-0.00102955
0.00160538
0.000668528
-0.00169095
0.000932199
-0.00102955
-0.000427636
0.000668528
-0.000401151
0.000932199
9.60211e-05
-0.000427636
0.000237933
-0.000401151
-1.16847e-05
1.84319e-05
5.01408e-06
-9.076e-06
1.84319e-05
-4.14032e-05
-9.076e-06
3.50875e-06
-4.14032e-05
7.3323e-05
3.50874e-06
1.5117e-05
7.33231e-05
-4.79424e-05
1.5117e-05
0.000176399
-4.79424e-05
7.37765e-05
0.000176399
2.27811e-05
-3.54318e-06
-3.14981e-06
2.57963e-06
3.05375e-06
-3.14981e-06
5.01408e-06
3.05374e-06
-3.14701e-06
5.01408e-06
-9.07599e-06
-3.14701e-06
4.31875e-06
-9.076e-06
3.50874e-06
4.31875e-06
-1.0572e-05
3.50875e-06
1.5117e-05
-1.0572e-05
8.94111e-06
2.57963e-06
3.05375e-06
-1.69199e-06
-1.62809e-06
3.05375e-06
-3.14701e-06
-1.62809e-06
1.07568e-06
-3.14701e-06
4.31875e-06
1.07568e-06
-2.64847e-06
4.31875e-06
-1.0572e-05
-2.64847e-06
-2.16995e-05
-1.0572e-05
8.94112e-06
-2.16995e-05
2.81064e-05
-1.69199e-06
-1.62809e-06
3.04373e-05
2.78236e-05
-1.6281e-06
1.07568e-06
2.78236e-05
-5.04308e-05
1.07568e-06
-2.64847e-06
-5.04308e-05
8.80018e-05
-2.64847e-06
-2.16995e-05