# vtk DataFile Version 2.0
Hex test
ASCII
DATASET UNSTRUCTURED_GRID
POINTS 8624 float
24 16 0
24 18 0
26 16 0
26 18 0
24 18 0
24 20 0
26 18 0
26 20 0
24 20 0
24 22 0
26 20 0
26 22 0
24 22 0
24 24 0
26 22 0
26 24 0
26 14 0
26 16 0
28 14 0
28 16 0
26 16 0
26 18 0
28 16 0
28 18 0
26 18 0
26 20 0
28 18 0
28 20 0
26 20 0
26 22 0
28 20 0
28 22 0
26 22 0
26 24 0
28 22 0
28 24 0
26 24 0
26 26 0
28 24 0
28 26 0
26 26 0
26 28 0
28 26 0
28 28 0
28 14 0
28 15 0
30 14 0
30 15 0
28 15 0
28 16 0
30 15 0
30 16 0
28 16 0
28 18 0
30 16 0
30 18 0
28 18 0
28 20 0
30 18 0
30 20 0
28 20 0
28 22 0
30 20 0
30 22 0
28 22 0
28 24 0
30 22 0
30 24 0
28 24 0
28 26 0
30 24 0
30 26 0
28 26 0
28 28 0
30 26 0
30 28 0
30 14 0
30 15 0
32 14 0
32 15 0
30 15 0
30 16 0
32 15 0
32 16 0
30 16 0
30 17 0
32 16 0
32 17 0
30 17 0
30 18 0
32 17 0
32 18 0
30 18 0
30 20 0
32 18 0
32 20 0
30 20 0
30 22 0
32 20 0
32 22 0
30 22 0
30 24 0
32 22 0
32 24 0
30 24 0
30 26 0
32 24 0
32 26 0
30 26 0
30 28 0
32 26 0
32 28 0
32 16 0
32 17 0
34 16 0
34 17 0
32 17 0
32 18 0
34 17 0
34 18 0
32 18 0
32 19 0
34 18 0
34 19 0
32 19 0
32 20 0
34 19 0
34 20 0
32 20 0
32 21 0
34 20 0
34 21 0
32 21 0
32 22 0
34 21 0
34 22 0
32 22 0
32 23 0
34 22 0
34 23 0
32 23 0
32 24 0
34 23 0
34 24 0
32 24 0
32 25 0
34 24 0
34 25 0
32 25 0
32 26 0
34 25 0
34 26 0
32 26 0
32 27 0
34 26 0
34 27 0
32 27 0
32 28 0
34 27 0
34 28 0
34 18 0
34 19 0
36 18 0
36 19 0
34 19 0
34 20 0
36 19 0
36 20 0
34 20 0
34 21 0
36 20 0
36 21 0
34 21 0
34 22 0
36 21 0
36 22 0
34 22 0
34 23 0
36 22 0
36 23 0
34 23 0
34 24 0
36 23 0
36 24 0
34 24 0
34 25 0
36 24 0
36 25 0
34 25 0
34 26 0
36 25 0
36 26 0
34 26 0
34 27 0
36 26 0
36 27 0
34 27 0
34 28 0
36 27 0
36 28 0
40 18 0
40 19 0
41 18 0
41 19 0
40 19 0
40 20 0
41 19 0
41 20 0
40 16 0
40 17 0
41 16 0
41 17 0
40 17 0
40 18 0
41 17 0
41 18 0
38 24 0
38 25 0
39 24 0
39 25 0
38 22 0
38 23 0
39 22 0
39 23 0
38 23 0
38 24 0
39 23 0
39 24 0
38 20 0
38 21 0
39 20 0
39 21 0
38 21 0
38 22 0
39 21 0
39 22 0
39 21 0
39 22 0
40 21 0
40 22 0
39 20 0
39 21 0
40 20 0
40 21 0
38 18 0
38 19 0
39 18 0
39 19 0
38 19 0
38 20 0
39 19 0
39 20 0
39 19 0
39 20 0
40 19 0
40 20 0
39 18 0
39 19 0
40 18 0
40 19 0
38 16 0
38 17 0
39 16 0
39 17 0
38 17 0
38 18 0
39 17 0
39 18 0
39 17 0
39 18 0
40 17 0
40 18 0
39 16 0
39 17 0
40 16 0
40 17 0
38 14 0
38 15 0
39 14 0
39 15 0
38 15 0
38 16 0
39 15 0
39 16 0
39 15 0
39 16 0
40 15 0
40 16 0
36 26 0
36 27 0
38 26 0
38 27 0
36 27 0
36 28 0
38 27 0
38 28 0
36 24 0
36 25 0
38 24 0
38 25 0
36 25 0
36 26 0
38 25 0
38 26 0
36 22 0
36 23 0
38 22 0
38 23 0
36 23 0
36 24 0
38 23 0
38 24 0
36 20 0
36 21 0
38 20 0
38 21 0
36 21 0
36 22 0
38 21 0
38 22 0
36 18 0
36 19 0
38 18 0
38 19 0
36 19 0
36 20 0
38 19 0
38 20 0
36 16 0
36 17 0
37 16 0
37 17 0
37 16 0
37 17 0
38 16 0
38 17 0
36 17 0
36 18 0
37 17 0
37 18 0
37 17 0
37 18 0
38 17 0
38 18 0
36 14 0
36 15 0
37 14 0
37 15 0
36 15 0
36 16 0
37 15 0
37 16 0
37 15 0
37 16 0
38 15 0
38 16 0
37 14 0
37 15 0
38 14 0
38 15 0
36 12 0
36 13 0
37 12 0
37 13 0
36 13 0
36 14 0
37 13 0
37 14 0
37 13 0
37 14 0
38 13 0
38 14 0
34 16 0
34 17 0
36 16 0
36 17 0
34 17 0
34 18 0
36 17 0
36 18 0
34 14 0
34 15 0
35 14 0
35 15 0
35 14 0
35 15 0
36 14 0
36 15 0
34 15 0
34 16 0
35 15 0
35 16 0
35 15 0
35 16 0
36 15 0
36 16 0
34 12 0
34 13 0
35 12 0
35 13 0
34 13 0
34 14 0
35 13 0
35 14 0
35 13 0
35 14 0
36 13 0
36 14 0
35 12 0
35 13 0
36 12 0
36 13 0
34 11 0
34 12 0
35 11 0
35 12 0
35 11 0
35 12 0
36 11 0
36 12 0
32 14 0
32 15 0
34 14 0
34 15 0
32 15 0
32 16 0
34 15 0
34 16 0
32 12 0
32 13 0
33 12 0
33 13 0
33 12 0
33 13 0
34 12 0
34 13 0
32 13 0
32 14 0
33 13 0
33 14 0
33 13 0
33 14 0
34 13 0
34 14 0
32 10 0
32 11 0
33 10 0
33 11 0
32 11 0
32 12 0
33 11 0
33 12 0
33 11 0
33 12 0
34 11 0
34 12 0
33 10 0
33 11 0
34 10 0
34 11 0
32 9 0
32 10 0
33 9 0
33 10 0
30 12 0
30 13 0
31 12 0
31 13 0
31 12 0
31 13 0
32 12 0
32 13 0
30 13 0
30 14 0
31 13 0
31 14 0
31 13 0
31 14 0
32 13 0
32 14 0
30 10 0
30 11 0
31 10 0
31 11 0
30 11 0
30 12 0
31 11 0
31 12 0
31 11 0
31 12 0
32 11 0
32 12 0
31 10 0
31 11 0
32 10 0
32 11 0
31 9 0
31 10 0
32 9 0
32 10 0
28 12 0
28 13 0
29 12 0
29 13 0
29 12 0
29 13 0
30 12 0
30 13 0
28 13 0
28 14 0
29 13 0
29 14 0
29 13 0
29 14 0
30 13 0
30 14 0
28 10 0
28 11 0
29 10 0
29 11 0
28 11 0
28 12 0
29 11 0
29 12 0
29 11 0
29 12 0
30 11 0
30 12 0
29 10 0
29 11 0
30 10 0
30 11 0
26 12 0
26 13 0
27 12 0
27 13 0
27 12 0
27 13 0
28 12 0
28 13 0
26 13 0
26 14 0
27 13 0
27 14 0
27 13 0
27 14 0
28 13 0
28 14 0
27 11 0
27 12 0
28 11 0
28 12 0
46 14 0
46 15 0
48 14 0
48 15 0
46 15 0
46 16 0
48 15 0
48 16 0
46 16 0
46 17 0
48 16 0
48 17 0
46 17 0
46 18 0
48 17 0
48 18 0
46 18 0
46 19 0
48 18 0
48 19 0
46 19 0
46 20 0
48 19 0
48 20 0
46 20 0
46 21 0
48 20 0
48 21 0
46 21 0
46 22 0
48 21 0
48 22 0
46 22 0
46 23 0
48 22 0
48 23 0
46 23 0
46 24 0
48 23 0
48 24 0
46 24 0
46 25 0
48 24 0
48 25 0
46 25 0
46 26 0
48 25 0
48 26 0
48 14 0
48 15 0
50 14 0
50 15 0
48 15 0
48 16 0
50 15 0
50 16 0
48 16 0
48 17 0
50 16 0
50 17 0
48 17 0
48 18 0
50 17 0
50 18 0
48 18 0
48 19 0
50 18 0
50 19 0
48 19 0
48 20 0
50 19 0
50 20 0
48 20 0
48 21 0
50 20 0
50 21 0
48 21 0
48 22 0
50 21 0
50 22 0
48 22 0
48 23 0
50 22 0
50 23 0
48 23 0
48 24 0
50 23 0
50 24 0
48 24 0
48 25 0
50 24 0
50 25 0
48 25 0
48 26 0
50 25 0
50 26 0
48 26 0
48 27 0
50 26 0
50 27 0
48 27 0
48 28 0
50 27 0
50 28 0
48 28 0
48 29 0
50 28 0
50 29 0
48 29 0
48 30 0
50 29 0
50 30 0
50 14 0
50 16 0
52 14 0
52 16 0
50 16 0
50 18 0
52 16 0
52 18 0
50 18 0
50 20 0
52 18 0
52 20 0
50 20 0
50 22 0
52 20 0
52 22 0
50 22 0
50 24 0
52 22 0
52 24 0
50 24 0
50 26 0
52 24 0
52 26 0
50 26 0
50 27 0
52 26 0
52 27 0
50 27 0
50 28 0
52 27 0
52 28 0
50 28 0
50 29 0
52 28 0
52 29 0
50 29 0
50 30 0
52 29 0
52 30 0
52 20 0
52 22 0
54 20 0
54 22 0
52 22 0
52 24 0
54 22 0
54 24 0
52 24 0
52 26 0
54 24 0
54 26 0
52 26 0
52 28 0
54 26 0
54 28 0
52 28 0
52 30 0
54 28 0
54 30 0
54 18 0
54 20 0
56.1667 18 0
56.1667 20 0
54 20 0
54 22 0
56.1667 20 0
56.1667 22 0
54 22 0
54 24 0
56.1667 22 0
56.1667 24 0
54 24 0
54 26 0
56.1667 24 0
56.1667 26 0
54 26 0
54 28 0
56.1667 26 0
56.1667 28 0
54 28 0
54 30 0
56.1667 28 0
56.1667 30 0
56.1667 20 0
56.1667 22 0
60 20 0
60 22 0
56.1667 22 0
56.1667 24 0
60 22 0
60 24 0
56.1667 24 0
56.1667 26 0
60 24 0
60 26 0
56.1667 26 0
56.1667 28 0
60 26 0
60 28 0
56.1667 28 0
56.1667 30 0
60 28 0
60 30 0
46 28 0
46 29 0
48 28 0
48 29 0
46 26 0
46 27 0
48 26 0
48 27 0
46 27 0
46 28 0
48 27 0
48 28 0
44 28 0
44 29 0
45 28 0
45 29 0
45 28 0
45 29 0
46 28 0
46 29 0
44 26 0
44 27 0
45 26 0
45 27 0
45 26 0
45 27 0
46 26 0
46 27 0
44 27 0
44 28 0
45 27 0
45 28 0
45 27 0
45 28 0
46 27 0
46 28 0
44 24 0
44 25 0
46 24 0
46 25 0
44 25 0
44 26 0
46 25 0
46 26 0
44 22 0
44 23 0
46 22 0
46 23 0
44 23 0
44 24 0
46 23 0
46 24 0
44 20 0
44 21 0
46 20 0
46 21 0
44 21 0
44 22 0
46 21 0
46 22 0
44 18 0
44 19 0
46 18 0
46 19 0
44 19 0
44 20 0
46 19 0
46 20 0
44 16 0
44 17 0
46 16 0
46 17 0
44 17 0
44 18 0
46 17 0
46 18 0
44 14 0
44 15 0
46 14 0
46 15 0
44 15 0
44 16 0
46 15 0
46 16 0
42 28 0
42 29 0
43 28 0
43 29 0
43 28 0
43 29 0
44 28 0
44 29 0
42 26 0
42 27 0
43 26 0
43 27 0
42 27 0
42 28 0
43 27 0
43 28 0
43 27 0
43 28 0
44 27 0
44 28 0
43 26 0
43 27 0
44 26 0
44 27 0
42 24 0
42 25 0
43 24 0
43 25 0
42 25 0
42 26 0
43 25 0
43 26 0
43 25 0
43 26 0
44 25 0
44 26 0
43 24 0
43 25 0
44 24 0
44 25 0
42 22 0
42 23 0
43 22 0
43 23 0
42 23 0
42 24 0
43 23 0
43 24 0
43 23 0
43 24 0
44 23 0
44 24 0
43 22 0
43 23 0
44 22 0
44 23 0
42 20 0
42 21 0
43 20 0
43 21 0
42 21 0
42 22 0
43 21 0
43 22 0
43 21 0
43 22 0
44 21 0
44 22 0
43 20 0
43 21 0
44 20 0
44 21 0
42 18 0
42 19 0
43 18 0
43 19 0
42 19 0
42 20 0
43 19 0
43 20 0
43 19 0
43 20 0
44 19 0
44 20 0
43 18 0
43 19 0
44 18 0
44 19 0
42 16 0
42 17 0
43 16 0
43 17 0
42 17 0
42 18 0
43 17 0
43 18 0
43 17 0
43 18 0
44 17 0
44 18 0
43 16 0
43 17 0
44 16 0
44 17 0
43 15 0
43 16 0
44 15 0
44 16 0
40 28 0
40 29 0
41 28 0
41 29 0
41 28 0
41 29 0
42 28 0
42 29 0
40 26 0
40 27 0
41 26 0
41 27 0
40 27 0
40 28 0
41 27 0
41 28 0
41 27 0
41 28 0
42 27 0
42 28 0
41 26 0
41 27 0
42 26 0
42 27 0
40 24 0
40 25 0
41 24 0
41 25 0
40 25 0
40 26 0
41 25 0
41 26 0
41 25 0
41 26 0
42 25 0
42 26 0
41 24 0
41 25 0
42 24 0
42 25 0
40 22 0
40 23 0
41 22 0
41 23 0
40 23 0
40 24 0
41 23 0
41 24 0
41 23 0
41 24 0
42 23 0
42 24 0
41 22 0
41 23 0
42 22 0
42 23 0
40 20 0
40 21 0
41 20 0
41 21 0
40 21 0
40 22 0
41 21 0
41 22 0
41 21 0
41 22 0
42 21 0
42 22 0
41 20 0
41 21 0
42 20 0
42 21 0
41 19 0
41 20 0
42 19 0
42 20 0
41 18 0
41 19 0
42 18 0
42 19 0
41 17 0
41 18 0
42 17 0
42 18 0
38 28 0
38 29 0
39 28 0
39 29 0
39 28 0
39 29 0
40 28 0
40 29 0
38 26 0
38 27 0
39 26 0
39 27 0
38 27 0
38 28 0
39 27 0
39 28 0
39 27 0
39 28 0
40 27 0
40 28 0
39 26 0
39 27 0
40 26 0
40 27 0
38 25 0
38 26 0
39 25 0
39 26 0
39 25 0
39 26 0
40 25 0
40 26 0
39 24 0
39 25 0
40 24 0
40 25 0
39 23 0
39 24 0
40 23 0
40 24 0
39 22 0
39 23 0
40 22 0
40 23 0
26 -12 0
26 -8.16667 0
28 -12 0
28 -8.16667 0
28 -12 0
28 -8.16667 0
30 -12 0
30 -8.16667 0
28 -8.16667 0
28 -6 0
30 -8.16667 0
30 -6 0
30 -12 0
30 -8.16667 0
32 -12 0
32 -8.16667 0
30 -8.16667 0
30 -6 0
32 -8.16667 0
32 -6 0
30 -6 0
30 -4 0
32 -6 0
32 -4 0
30 -4 0
30 -2 0
32 -4 0
32 -2 0
30 -2 0
30 6.93889e-18 0
32 -2 0
32 6.93889e-18 0
32 -12 0
32 -8.16667 0
34 -12 0
34 -8.16667 0
32 -8.16667 0
32 -6 0
34 -8.16667 0
34 -6 0
32 -6 0
32 -4 0
34 -6 0
34 -4 0
32 -4 0
32 -2 0
34 -4 0
34 -2 0
32 -2 0
32 6.93889e-18 0
34 -2 0
34 6.93889e-18 0
34 -12 0
34 -8.16667 0
36 -12 0
36 -8.16667 0
34 -8.16667 0
34 -6 0
36 -8.16667 0
36 -6 0
34 -6 0
34 -4 0
36 -6 0
36 -4 0
34 -4 0
34 -2 0
36 -4 0
36 -2 0
34 -2 0
34 6.93889e-18 0
36 -2 0
36 6.93889e-18 0
34 3.46945e-17 0
34 2 0
36 3.46945e-17 0
36 2 0
36 -12 0
36 -8.16667 0
38 -12 0
38 -8.16667 0
36 -8.16667 0
36 -6 0
38 -8.16667 0
38 -6 0
36 -6 0
36 -4 0
38 -6 0
38 -4 0
36 -4 0
36 -2 0
38 -4 0
38 -2 0
36 -2 0
36 6.93889e-18 0
38 -2 0
38 6.93889e-18 0
36 3.46945e-17 0
36 2 0
38 3.46945e-17 0
38 2 0
38 -12 0
38 -8.16667 0
40 -12 0
40 -8.16667 0
[...]
POINT_DATA 8624
SCALARS phi float 1
LOOKUP_TABLE default
1.00006
0.999867
0.999403
1.00079
0.999867
0.999731
1.00079
1.00024
0.999731
0.999825
1.00024
1.00051
0.999825
0.999955
1.00051
1.00033
0.999218
0.999403
1.00072
1.00091
0.999403
1.00079
1.00091
0.998952
1.00079
1.00024
0.998952
0.999338
1.00024
1.00051
0.999338
0.998998
1.00051
1.00033
0.998998
0.999461
1.00033
1.00043
0.999461
0.998753
1.00043
1.00045
0.998753
0.999873
1.00072
1.00096
0.998125
1.00218
1.00096
1.00091
1.00218
0.999528
1.00091
0.998952
0.999528
1.0023
0.998952
0.999338
1.0023
1.00097
0.999338
0.998998
1.00097
1.00189
0.998998
0.999461
1.00189
1.00114
0.999461
0.998753
1.00114
1.00199
0.998753
0.999873
1.00199
1.00082
0.998125
1.00218
0.997241
1.0036
1.00218
0.999528
1.0036
1.00181
0.999528
1.00005
1.00181
1.00099
1.00005
1.0023
1.00099
0.996142
1.0023
1.00097
0.996142
0.99613
1.00097
1.00189
0.99613
0.997095
1.00189
1.00114
0.997095
0.99852
1.00114
1.00199
0.998521
0.995979
1.00199
1.00082
0.995979
0.999402
1.00181
1.00099
0.991853
1.0078
1.00099
0.996142
1.0078
1.00467
0.996142
0.994791
1.00467
0.999928
0.994791
0.99613
0.999928
1.00062
0.99613
0.99668
1.00062
1.00532
0.99668
0.997095
1.00532
1.00699
0.997095
0.998344
1.00699
1.00565
0.998344
0.998521
1.00565
1.00519
0.99852
0.996353
1.00519
1.00763
0.996353
0.995979
1.00763
1.00821
0.995979
0.999991
1.00821
1.00305
0.999991
0.999402
1.00305
1.00307
1.00467
0.999928
0.993913
0.988968
0.999928
1.00062
0.988968
0.989934
1.00062
1.00532
0.989934
0.992027
1.00532
1.00699
0.992027
0.992089
1.00699
1.00565
0.992089
0.992458
1.00565
1.00519
0.992458
0.992903
1.00519
1.00763
0.992903
0.991665
1.00763
1.00821
0.991665
0.991271
1.00821
1.00305
0.991271
0.993917
1.00305
1.00307
0.993917
0.992839
0.0153662
0.0109931
-0.00680922
-0.00244233
0.0109931
0.00796706
-0.00244233
0.000192344
0.0165997
0.0158112
-0.00468613
-0.00868549
0.0158112
0.0153662
-0.00868549
-0.00680922
0.758768
0.758684
0.181883
0.177113
0.758287
0.759541
0.178462
0.180003
0.759541
0.758768
0.180003
0.181883
0.758852
0.755501
0.172207
0.178114
0.755501
0.758287
0.178114
0.178462
0.178114
0.178462
0.00729089
0.00674131
0.172207
0.178114
0.00796706
0.00729089
0.723916
0.72675
0.118122
0.134297
0.72675
0.758852
0.134297
0.172207
0.134297
0.172207
0.0109931
0.00796706
0.118122
0.134297
0.0153662
0.0109931
0.657763
0.692609
0.169967
0.112684
0.692609
0.723916
0.112684
0.118122
0.112684
0.118122
0.0158112
0.0153662
0.169967
0.112684
0.0165997
0.0158112
0.351149
0.488628
0.094021
0.163756
0.488628
0.657763
0.163756
0.169967
0.163756
0.169967
0.0157459
0.0165997
0.991271
0.993917
0.758682
0.755418
0.993917
0.992838
0.755417
0.760584
0.992903
0.991665
0.758768
0.758684
0.991665
0.991271
0.758684
0.758682
0.992089
0.992458
0.758287
0.759541
0.992458
0.992903
0.759541
0.758768
0.989934
0.992027
0.758852
0.755501
0.992027
0.992089
0.755501
0.758287
0.993913
0.988968
0.723916
0.72675
0.988968
0.989934
0.72675
0.758852
0.991756
0.984961
0.926888
0.975922
0.926888
0.975922
0.657763
0.692609
0.984961
0.993913
0.975922
1.00406
0.975922
1.00406
0.692609
0.723916
0.844497
0.945037
0.527396
0.71287
0.945037
0.991756
0.71287
0.926888
0.71287
0.926888
0.488628
0.657763
0.527396
0.71287
0.351149
0.488628
0.487907
0.718913
0.269934
0.519343
0.718913
0.844497
0.519343
0.527396
0.519343
0.527396
0.184849
0.351149
0.991853
1.0078
0.991756
0.984961
1.0078
1.00467
0.984961
0.993913
0.994898
0.992235
0.983511
1.01018
0.983511
1.01018
0.844497
0.945037
0.992235
0.991853
1.01018
0.997507
1.01018
0.997507
0.945037
0.991755
0.785788
0.992414
0.645021
0.946756
0.992414
0.994898
0.946756
0.983511
0.946756
0.983511
0.718913
0.844497
0.645021
0.946756
0.487907
0.718913
0.282969
0.785788
0.144692
0.645021
0.144692
0.645021
0.041438
0.487907
0.997241
1.0036
0.994898
0.992235
1.0036
1.00181
0.992235
0.991853
0.964975
1.00078
0.877513
0.98763
0.877513
0.98763
0.785788
0.992414
1.00078
0.997241
0.98763
0.994576
0.98763
0.994576
0.992414
0.994898
0.791528
0.951816
0.529439
0.670083
0.951816
0.964975
0.670083
0.877513
0.670084
0.877513
0.282969
0.785788
0.529439
0.670084
0.152457
0.282969
0.547684
0.791528
0.311864
0.529439
1.00862
0.999421
0.994425
1.00362
0.994425
1.00362
0.964975
1.00078
0.999421
0.998125
1.00362
0.998009
1.00362
0.998009
1.00078
0.997241
0.989198
0.982905
0.930701
0.980293
0.982905
1.00862
0.980293
0.994425
0.980293
0.994425
0.951816
0.964975
0.930701
0.980293
0.791528
0.951816
0.619262
0.930701
0.547684
0.791528
1.00042
1.00064
0.997607
0.995745
0.997607
0.995745
1.00862
0.999421
1.00064
1.00072
0.995745
0.999519
0.995745
0.999519
0.999421
0.998125
0.979258
1.00031
0.988598
1.00609
1.00031
1.00042
1.00609
0.997607
1.00609
0.997607
0.982905
1.00862
0.988598
1.00609
0.989198
0.982905
1.00532
0.996105
1.00465
1.00058
1.00465
1.00058
1.00042
1.00064
0.996105
0.999218
1.00058
1.00016
1.00058
1.00016
1.00064
1.00072
0.984918
1.00465
1.00031
1.00042
-6.20063e-08
0.00057549
8.10404e-05
0.000185412
0.00057549
0.000453714
0.000185412
8.27927e-07
0.000453714
0.000597921
8.27936e-07
-4.66508e-05
0.000597921
-0.000131503
-4.66508e-05
-0.000164194
-0.000131503
-0.000228589
-0.000164194
-0.000137333
-0.000228589
-2.09417e-05
-0.000137333
-4.72455e-05
-2.09417e-05
-3.0148e-06
-4.72455e-05
-7.30525e-06
-3.0148e-06
1.66132e-05
-7.30525e-06
4.8951e-05
1.66132e-05
2.71092e-05
4.8951e-05
7.54301e-05
2.71092e-05
3.0537e-05
7.54301e-05
6.96643e-05
3.0537e-05
2.96501e-05
6.96643e-05
6.07823e-05
2.96501e-05
2.73039e-05
6.07823e-05
7.05481e-05
8.10404e-05
0.000185412
4.63408e-05
8.19191e-05
0.000185412
8.27927e-07
8.19191e-05
0.000110773
8.27938e-07
-4.66508e-05
0.000110773
9.72467e-05
-4.66508e-05
-0.000164194
9.72467e-05
5.26164e-05
-0.000164194
-0.000137333
5.26164e-05
9.9716e-07
-0.000137333
-4.72454e-05
9.9716e-07
-2.90798e-05
-4.72454e-05
-7.30525e-06
-2.90798e-05
-2.06423e-05
-7.30525e-06
4.8951e-05
-2.06423e-05
-7.36945e-06
4.8951e-05
7.54301e-05
-7.36945e-06
-1.92906e-05
7.54301e-05
6.96643e-05
-1.92906e-05
-2.11834e-05
6.96643e-05
6.07823e-05
-2.11834e-05
1.44859e-05
6.07823e-05
7.05481e-05
1.44859e-05
1.92451e-05
7.05481e-05
9.13325e-05
1.92451e-05
-5.09348e-05
9.13325e-05
9.85342e-05
-5.09348e-05
-5.37144e-05
9.85342e-05
-2.1251e-05
-5.37144e-05
8.20455e-05
-2.1251e-05
-0.00020728
8.20455e-05
2.02801e-05
4.63408e-05
0.000110773
-2.00783e-06
-3.59602e-05
0.000110773
5.26164e-05
-3.59602e-05
-7.25049e-06
5.26164e-05
-2.90798e-05
-7.2505e-06
3.60255e-06
-2.90798e-05
-7.36945e-06
3.60255e-06
3.99913e-06
-7.36945e-06
-2.11834e-05
3.99913e-06
8.29615e-06
-2.11834e-05
1.92451e-05
8.29616e-06
-1.93416e-06
1.92451e-05
-5.09348e-05
-1.93416e-06
1.92346e-05
-5.09348e-05
-5.37144e-05
1.92346e-05
2.00326e-05
-5.37144e-05
8.20455e-05
2.00326e-05
-2.21717e-05
8.20455e-05
2.028e-05
-2.21717e-05
4.92178e-07
3.60255e-06
3.99913e-06
-2.41859e-06
-1.00441e-06
3.99913e-06
8.29615e-06
-1.00441e-06
-4.33912e-06
8.29616e-06
-1.93416e-06
-4.33912e-06
2.57759e-06
-1.93416e-06
2.00326e-05
2.57759e-06
-1.11982e-05
2.00326e-05
4.92185e-07
-1.11982e-05
1.05523e-05
3.36588e-06
-2.41859e-06
1.21774e-06
1.39363e-06
-2.41859e-06
-1.00441e-06
1.39363e-06
-1.24935e-06
-1.00441e-06
-4.33912e-06
-1.24935e-06
1.73788e-06
-4.33912e-06
2.57759e-06
1.73788e-06
-3.51567e-06
2.57759e-06
-1.11982e-05
-3.51568e-06
6.15792e-06
-1.11982e-05
1.05523e-05
6.15791e-06
-2.07456e-05
1.39363e-06
-1.24935e-06
1.32544e-06
-1.05147e-07
-1.24935e-06
1.73788e-06
-1.05147e-07
2.12936e-06
1.73788e-06
-3.51567e-06
2.12936e-06
-2.2291e-06
-3.51567e-06
6.15792e-06
-2.2291e-06
6.24298e-06
6.15792e-06
-2.07456e-05
6.24298e-06
-1.19537e-05
-4.44399e-05
-2.49351e-05
9.85342e-05
-2.1251e-05
2.73039e-05
1.08673e-06
7.05481e-05
9.13325e-05
1.08673e-06
-4.44399e-05
9.13325e-05
9.85342e-05
-0.000232481
2.31339e-05
-0.000347939
3.90775e-06
-0.000347939
3.90773e-06
-4.44399e-05
-2.49352e-05
-9.1786e-05
-0.000137932
-0.000132482
-0.000167752
-0.000132482
-0.000167752
2.73039e-05
1.08673e-06
-0.000137932
-0.000232481
-0.000167752
-0.000347939
-0.000167752
-0.000347939
1.08673e-06
-4.44399e-05
-8.54198e-05
-9.09689e-05
3.0537e-05
2.96501e-05
-9.09689e-05
-9.1786e-05
2.96501e-05
2.73039e-05
-9.59512e-05
-8.19977e-05
1.66132e-05
2.71092e-05
-8.19977e-05
-8.54197e-05
2.71092e-05
3.0537e-05
-1.86899e-05
-9.89436e-05
-2.09417e-05
-3.0148e-06
-9.89436e-05
-9.59512e-05
-3.0148e-06
1.66132e-05
0.000523755
0.000339998
-0.000131503
-0.000228589
0.000339998
-1.86899e-05
-0.000228589
-2.09417e-05
-0.000106012
0.000210572
0.000453714
0.000597921
0.000210572
0.000523755
0.000597921
-0.000131503
-0.000183272
1.95306e-05
-6.20318e-08
0.00057549
1.95305e-05
-0.000106012
0.00057549
0.000453714
-0.000333165
0.000417557
7.64795e-05
-0.000176639
7.64796e-05
-0.000176639
-0.000232481
2.31339e-05
-0.000173427
-0.000156533
7.17494e-05
5.35698e-05
-0.000156533
-0.000333165
5.35698e-05
7.64795e-05
5.35698e-05
7.64796e-05
-0.000137932
-0.000232481
7.17494e-05
5.35698e-05
-9.1786e-05
-0.000137932
-0.000245546
-0.000151914
9.77471e-05
6.2336e-05
-0.000151914
-0.000173428
6.23361e-05
7.17494e-05
6.2336e-05
7.17494e-05
-9.09689e-05
-9.1786e-05
9.77471e-05
6.23361e-05
-8.54198e-05
-9.09689e-05
-0.000171485
-0.000307663
6.21224e-05
0.000112823
-0.000307663
-0.000245546
0.000112823
9.77471e-05
0.000112823
9.77471e-05
-8.19977e-05
-8.54198e-05
6.21224e-05
0.000112823
-9.59512e-05
-8.19977e-05
3.98949e-05
-0.000130644
-1.99355e-05
4.90019e-05
-0.000130644
-0.000171485
4.90019e-05
6.21224e-05
4.90019e-05
6.21224e-05
-9.89436e-05
-9.59512e-05
-1.99355e-05
4.90019e-05
-1.86899e-05
-9.89436e-05
0.00259804
0.00117519
-0.000940278
-0.000393922
0.00117519
3.98949e-05
-0.000393922
-1.99355e-05
-0.000393922
-1.99355e-05
0.000339998
-1.86899e-05
-0.000940278
-0.000393922
0.000523755
0.000339998
0.0015548
0.00320857
-0.000558888
-0.00155955
0.00320857
0.00259804
-0.00155955
-0.000940278
-0.00155955
-0.000940278
0.000210572
0.000523755
-0.000558888
-0.00155955
-0.000106012
0.000210572
0.000218626
-0.000558888
1.95305e-05
-0.000106012
0.00583665
0.00540095
0.000832262
-0.000460455
0.000832262
-0.000460455
-0.000333165
0.000417558
0.00700568
0.00667594
0.000540853
0.000534332
0.00667594
0.00583665
0.000534332
0.000832262
0.000534332
0.000832262
-0.000156533
-0.000333165
0.000540853
0.000534332
-0.000173427
-0.000156533
0.00685355
0.00672597
0.000715203
0.000524481
0.00672597
0.00700568
0.000524481
0.000540853
0.000524481
0.000540853
-0.000151914
-0.000173428
0.000715203
0.000524481
-0.000245546
-0.000151914
0.00674131
0.00594821
0.000535174
0.000846313
0.00594821
0.00685355
0.000846313
0.000715203
0.000846313
0.000715202
-0.000307663
-0.000245546
0.000535174
0.000846313
-0.000171485
-0.000307663
0.00796706
0.00729089
0.000192344
0.000470908
0.00729089
0.00674131
0.000470908
0.000535174
0.000470908
0.000535174
-0.000130644
-0.000171485
0.000192344
0.000470908
3.98949e-05
-0.000130644
-0.00244233
0.000192344
0.00117519
3.98949e-05
-0.00680922
-0.00244233
0.00259804
0.00117519
-0.00868548
-0.00680922
0.00320857
0.00259804
0.760584
0.775547
0.181542
0.151516
0.181542
0.151516
0.00583665
0.00540095
0.758682
0.755418
0.179684
0.176615
0.755417
0.760584
0.176615
0.181542
0.176615
0.181542
0.00667594
0.00583665
0.179684
0.176615
0.00700568
0.00667594
0.758684
0.758682
0.177113
0.179684
0.177113
0.179684
0.00672597
0.00700568
0.181883
0.177113
0.00685355
0.00672597
0.180003
0.181883
0.00594821
0.00685355
0.178462
0.180003
0.00674131
0.00594821
2.40414e-06
9.77126e-06
7.61585e-06
3.3356e-06
7.61585e-06
3.3356e-06
6.7271e-06
-6.01002e-06
3.3356e-06
-1.69689e-05
-6.01002e-06
-2.74881e-05
6.7271e-06
-6.01002e-06
-9.42006e-06
-1.90646e-06
-6.01002e-06
-2.74881e-05
-1.90646e-06
2.43021e-05
-2.74881e-05
7.0629e-05
2.43021e-05
-5.39587e-05
7.0629e-05
-0.000169042
-5.39587e-05
0.000126784
-0.000169042
8.37866e-05
0.000126784
-9.36045e-05
-9.42006e-06
-1.90646e-06
7.36843e-07
-1.42691e-06
-1.90646e-06
2.43021e-05
-1.42692e-06
-4.05261e-06
2.43021e-05
-5.39587e-05
-4.05261e-06
1.08434e-05
-5.39587e-05
0.000126784
1.08434e-05
-2.62109e-05
0.000126784
-9.36045e-05
-2.62109e-05
1.27611e-05
7.36843e-07
-1.42691e-06
-4.25214e-06
-2.77037e-06
-1.42692e-06
-4.05261e-06
-2.77037e-06
8.44877e-06
-4.0526e-06
1.08434e-05
8.44877e-06
-1.66511e-05
1.08434e-05
-2.62109e-05
-1.66511e-05
3.46382e-05
-2.62109e-05
1.27611e-05
3.46381e-05
-3.38472e-05
1.27611e-05
2.45482e-05
-3.38472e-05
-2.9467e-05
-4.25214e-06
-2.77037e-06
2.70279e-07
-1.03831e-06
-2.77037e-06
8.44877e-06
-1.03831e-06
-2.13132e-06
8.44877e-06
-1.66511e-05
-2.13132e-06
5.93913e-06
-1.66511e-05
3.46382e-05
5.93913e-06
-1.83217e-05
3.46382e-05
-3.38472e-05
-1.83217e-05
4.24084e-06
-3.38472e-05
-2.9467e-05
4.24084e-06
1.69199e-05
2.70279e-07
-1.03831e-06
3.47769e-07
5.36764e-07
-1.03831e-06
-2.13132e-06
5.36764e-07
-2.91742e-07
-2.13132e-06
5.93913e-06
-2.91741e-07
6.5965e-08
5.93913e-06
-1.83217e-05
6.59653e-08
-2.86189e-06
-1.83217e-05
4.24084e-06
-2.86189e-06
-9.35799e-07
4.24084e-06
1.69199e-05
-9.358e-07
7.11115e-06
3.47769e-07
5.36764e-07
2.39566e-07
7.78691e-07
5.36764e-07
-2.91742e-07
7.78691e-07
3.57026e-07
-2.91742e-07
6.59653e-08
3.57026e-07
-1.65451e-06
6.59646e-08
-2.86189e-06
-1.65451e-06
3.65198e-06
-2.86189e-06
-9.35801e-07
3.65198e-06
-1.97068e-06
-9.358e-07
7.11115e-06
-1.97068e-06
1.84505e-06
7.11115e-06
-2.10972e-05
1.84505e-06
-1.31301e-05
2.39566e-07
7.78691e-07
-9.66062e-10
-2.59567e-09
7.78691e-07
3.57026e-07
-2.59566e-09
-9.0385e-09
3.57026e-07
-1.65451e-06
-9.03852e-09
2.08186e-08
-1.65451e-06
3.65198e-06
2.08187e-08
-3.62767e-07
3.65198e-06
-1.97068e-06
-3.62767e-07
-3.10011e-07
-1.97068e-06
1.84505e-06
-3.10011e-07
6.24028e-07
-9.66062e-10
-2.59567e-09
-1.08915e-07
-9.93483e-08
-2.59567e-09
-9.0385e-09
-9.93482e-08
1.82391e-07
-9.03851e-09
2.08186e-08
1.82391e-07
-3.19984e-07
2.08186e-08
-3.62766e-07
-3.19984e-07
8.53908e-07
-3.62767e-07
-3.10011e-07
8.53908e-07
-7.44081e-07
-3.10011e-07
6.24029e-07
-7.44081e-07
1.17204e-06
-1.08915e-07
-9.93483e-08
3.7679e-08
5.54997e-08
-9.93483e-08
1.82391e-07
5.54997e-08
-3.36755e-08
1.82391e-07
-3.19984e-07
-3.36755e-08
2.20114e-08
-3.19984e-07
8.53908e-07
2.20115e-08
-3.61539e-08
8.53908e-07
-7.44081e-07
-3.61539e-08
1.22748e-07
-7.44081e-07
1.17204e-06
1.22748e-07
-2.99875e-07
1.17204e-06
-1.04018e-06
-2.99875e-07
2.20244e-07
3.7679e-08
5.54997e-08
-7.76332e-09
-7.03917e-08
5.54997e-08
-3.36755e-08
-7.03917e-08
-7.18382e-08
-3.36755e-08
2.20115e-08
-7.18382e-08
2.38122e-07
2.20114e-08
-3.6154e-08
2.38122e-07
-6.03167e-07
-3.61539e-08
1.22748e-07
-6.03167e-07
3.75041e-07
1.22748e-07
-2.99875e-07
3.75041e-07
-4.00426e-07
-2.99875e-07
2.20244e-07
-4.00426e-07
5.9585e-07
2.20244e-07
1.4042e-06
5.9585e-07
-4.68026e-06
1.72728e-06
-4.28317e-06
6.25366e-06
-5.69433e-06
-7.76332e-09
-7.03917e-08
8.20415e-09
2.79551e-08
-7.03917e-08
-7.18382e-08
2.79551e-08
1.39569e-08
-7.18382e-08
2.38122e-07
1.39569e-08
-6.0557e-08
2.38122e-07
-6.03167e-07
-6.0557e-08
1.44603e-07
-6.03167e-07
3.75041e-07
1.44603e-07
-8.6465e-08
3.75041e-07
-4.00426e-07
-8.6465e-08
8.19151e-08
-4.00426e-07
5.9585e-07
8.19151e-08
-1.57979e-07
5.9585e-07
-4.68026e-06
-1.57979e-07
1.54832e-06
-4.68026e-06
6.25366e-06
1.54832e-06
-2.0333e-06
6.25366e-06
-1.08556e-05
-2.0333e-06
2.51424e-06
-1.08556e-05
3.35133e-05
2.51424e-06
-2.92552e-06
3.35133e-05
4.63408e-05
-2.92552e-06
-2.00783e-06
8.20415e-09
2.79551e-08
-3.91537e-09
-8.93609e-09
2.79551e-08
1.39569e-08
-8.93609e-09
-6.19588e-10
1.39569e-08
-6.0557e-08
-6.19587e-10
1.02238e-08
-6.0557e-08
1.44603e-07
1.02238e-08
-2.80062e-08
1.44603e-07
-8.6465e-08
-2.80062e-08
3.55634e-09
-8.6465e-08
8.19151e-08
3.55634e-09
2.74351e-08
8.19151e-08
-1.57979e-07
2.74351e-08
-1.04715e-09
-1.57979e-07
1.54832e-06
-1.04713e-09
-4.17894e-07
1.54832e-06
-2.0333e-06
-4.17894e-07
8.61488e-07
-2.0333e-06
2.51424e-06
8.61488e-07
-3.39547e-07
2.51424e-06
-2.92552e-06
-3.39547e-07
2.24012e-06
-2.92552e-06
-2.00783e-06
2.24012e-06
1.02694e-06
-2.00783e-06
-3.59602e-05
1.02694e-06
1.42423e-05
-3.59602e-05
-7.2505e-06
1.42423e-05
3.36588e-06
-7.2505e-06
3.60255e-06
3.36588e-06
-2.41859e-06
-3.91537e-09
-8.93609e-09
1.1891e-09
-6.0737e-09
-8.93609e-09
-6.1959e-10
-6.0737e-09
-1.17813e-08
-6.19586e-10
1.02238e-08
-1.17813e-08
3.38587e-08
1.02238e-08
-2.80062e-08
3.38587e-08
-7.2794e-08
-2.80062e-08
3.55635e-09
-7.2794e-08
7.09033e-08
3.55636e-09
2.74351e-08
7.09033e-08
-1.31459e-07
2.74351e-08
-1.04714e-09
-1.31459e-07
1.39248e-07
-1.04718e-09
-4.17894e-07
1.39247e-07
-5.47325e-07
-4.17894e-07
8.61488e-07
-5.47325e-07
7.23178e-08
8.61488e-07
-3.39546e-07
7.23178e-08
-1.59342e-06
-3.39546e-07
2.24012e-06
-1.59342e-06
-1.99309e-06
2.24012e-06
1.02694e-06
-1.99309e-06
1.95202e-07
1.02694e-06
1.42423e-05
1.95202e-07
2.28912e-06
1.42423e-05
3.36588e-06
2.28912e-06
1.21774e-06
1.1891e-09
-6.0737e-09
2.00871e-09
6.90118e-10
-6.0737e-09
-1.17813e-08
6.90117e-10
-5.24242e-09
-1.17813e-08
3.38587e-08
-5.24242e-09
1.16517e-08
3.38587e-08
-7.2794e-08
1.16517e-08
-2.23108e-08
-7.2794e-08
7.09033e-08
-2.23108e-08
3.12654e-08
7.09033e-08
-1.31459e-07
3.12654e-08
-7.05383e-08
-1.31459e-07
1.39248e-07
-7.05383e-08
6.26338e-08
1.39247e-07
-5.47325e-07
6.26338e-08
-1.19561e-07
-5.47325e-07
7.23178e-08
-1.19561e-07
-2.05759e-07
7.23177e-08
-1.59342e-06
-2.05759e-07
-6.1855e-07
-1.59342e-06
-1.99309e-06
-6.1855e-07
-1.29106e-06
-1.99309e-06
1.95202e-07
-1.29106e-06
-3.47704e-07
1.95202e-07
2.28912e-06
-3.47704e-07
-4.03699e-06
2.28912e-06
1.21774e-06
-4.03699e-06
-3.96438e-07
1.21774e-06
1.39363e-06
-3.96438e-07
1.32544e-06
0.000242306
0.0015548
0.000218626
-0.000558888
-0.00468613
-0.00868549
0.0015548
0.00320857
-2.9467e-05
-0.000257797
-1.49145e-05
-0.000120838
-1.49145e-05
-0.000120838
1.69199e-05
0.000110415
2.45481e-05
0.000507277
7.83201e-06
0.000105431
7.83201e-06
0.000105431
-2.9467e-05
-0.000257797
0.252573
0.547684
0.083919
0.311864
0.381115
0.619262
0.252573
0.547684
-2.10972e-05
-2.57537e-05
-1.31301e-05
-1.32248e-05
-2.57537e-05
3.2997e-05
-1.32248e-05
-2.66629e-05
3.2997e-05
-3.27098e-05
-2.66629e-05
-1.14105e-05
1.84505e-06
-1.31301e-05
6.24028e-07
-3.59994e-06
-1.31301e-05
-1.32248e-05
-3.59994e-06
-2.01871e-06
-1.32248e-05
-2.66629e-05
-2.01871e-06
1.03184e-05
-2.66629e-05
-1.14105e-05
1.03184e-05
9.65862e-06
6.24028e-07
-2.01871e-06
1.17204e-06
-1.04018e-06
-2.01871e-06
9.65862e-06
-1.04018e-06
2.5385e-06
9.65862e-06
-1.9445e-06
2.5385e-06
6.87844e-06
-1.9445e-06
3.12072e-05
6.87844e-06
3.29026e-05
-1.04018e-06
2.5385e-06
2.20244e-07
1.4042e-06
2.5385e-06
6.87844e-06
1.4042e-06
3.76022e-06
6.87844e-06
3.29026e-05
3.76022e-06
1.72729e-06
3.29026e-05
2.4094e-06
1.72729e-06
-4.28317e-06
2.4094e-06
3.15463e-05
-4.28317e-06
2.00995e-06
3.15463e-05
4.23435e-05
2.00995e-06
2.50863e-05
4.23435e-05
9.80809e-05
2.50863e-05
0.000120606
9.8081e-05
5.36692e-06
0.000120606
0.000114798
5.36692e-06
-6.20167e-08
0.000114798
8.10404e-05
1.4042e-06
1.72729e-06
-4.68026e-06
6.25366e-06
-4.28317e-06
2.00995e-06
-5.69433e-06
-1.08556e-05
2.00995e-06
2.50863e-05
-1.08556e-05
9.96579e-06
2.50863e-05
0.000120606
9.96579e-06
3.35133e-05
0.000120606
0.000114798
3.35133e-05
3.75464e-05
0.000114798
8.10404e-05
3.75464e-05
4.63408e-05
7.83903e-05
6.67724e-06
9.8081e-05
5.36693e-06
6.67721e-06
-0.000183272
5.36693e-06
-6.20164e-08
-1.94789e-05
-2.05168e-05
3.15463e-05
4.23435e-05
-2.05168e-05
7.83902e-05
4.23435e-05
9.8081e-05
3.12072e-05
-1.40811e-05
3.29026e-05
2.4094e-06
-1.40811e-05
-1.94789e-05
2.4094e-06
3.15463e-05
0.00151656
0.000242306
-0.000456944
0.000218626
-0.000456944
0.000218626
-0.000183272
1.95306e-05
-0.000599051
1.95845e-05
0.000247848
-0.000253813
1.95845e-05
0.00151656
-0.000253813
-0.000456944
-0.000253813
-0.000456944
6.67725e-06
-0.000183272
0.000247848
-0.000253813
7.83902e-05
6.67723e-06
-0.000222911
0.00028012
-0.000119816
-1.93594e-05
0.00028012
-0.000599051
-1.93594e-05
0.000247848
-1.93594e-05
0.000247848
-2.05168e-05
7.83902e-05
-0.000119816
-1.93594e-05
-1.94789e-05
-2.05168e-05
-1.26144e-05
-0.000110315
-2.65506e-05
6.14061e-05
-2.65506e-05
6.14061e-05
3.12072e-05
-1.40811e-05
-0.000110315
-0.000222911
6.14061e-05