# vtk DataFile Version 2.0
Hex test
ASCII
DATASET UNSTRUCTURED_GRID
POINTS 8820 float
-12 14 0
-12 16 0
-8.16667 14 0
-8.16667 16 0
-12 16 0
-12 18 0
-8.16667 16 0
-8.16667 18 0
-12 18 0
-12 20 0
-8.16667 18 0
-8.16667 20 0
-12 20 0
-12 22 0
-8.16667 20 0
-8.16667 22 0
-12 22 0
-12 24 0
-8.16667 22 0
-8.16667 24 0
-8.16667 14 0
-8.16667 16 0
-6 14 0
-6 16 0
-8.16667 16 0
-8.16667 18 0
-6 16 0
-6 18 0
-8.16667 18 0
-8.16667 20 0
-6 18 0
-6 20 0
-8.16667 20 0
-8.16667 22 0
-6 20 0
-6 22 0
-6 14 0
-6 16 0
-4 14 0
-4 16 0
-6 16 0
-6 18 0
-4 16 0
-4 18 0
-6 18 0
-6 20 0
-4 18 0
-4 20 0
-6 20 0
-6 22 0
-4 20 0
-4 22 0
-6 22 0
-6 24 0
-4 22 0
-4 24 0
-4 14 0
-4 16 0
-2 14 0
-2 16 0
-4 16 0
-4 18 0
-2 16 0
-2 18 0
-4 18 0
-4 20 0
-2 18 0
-2 20 0
-4 20 0
-4 22 0
-2 20 0
-2 22 0
-4 22 0
-4 24 0
-2 22 0
-2 24 0
-4 24 0
-4 26 0
-2 24 0
-2 26 0
-2 14 0
-2 16 0
-2.77556e-17 14 0
-5.55112e-17 16 0
-2 16 0
-2 18 0
-2.77556e-17 16 0
-5.55112e-17 18 0
-2 18 0
-2 20 0
-2.77556e-17 18 0
-5.55112e-17 20 0
-2 20 0
-2 22 0
-2.77556e-17 20 0
-5.55112e-17 22 0
-2 22 0
-2 24 0
-2.77556e-17 22 0
-5.55112e-17 24 0
-2 24 0
-2 26 0
-2.77556e-17 24 0
-5.55112e-17 26 0
2.77556e-17 14 0
2.42861e-17 15 0
2 14 0
2 15 0
2.42861e-17 15 0
2.77556e-17 16 0
2 15 0
2 16 0
2.77556e-17 16 0
2.42861e-17 17 0
2 16 0
2 17 0
2.42861e-17 17 0
2.77556e-17 18 0
2 17 0
2 18 0
2.77556e-17 18 0
2.42861e-17 19 0
2 18 0
2 19 0
2.42861e-17 19 0
2.77556e-17 20 0
2 19 0
2 20 0
2.77556e-17 20 0
2.42861e-17 21 0
2 20 0
2 21 0
2.42861e-17 21 0
2.77556e-17 22 0
2 21 0
2 22 0
2.77556e-17 22 0
2.42861e-17 23 0
2 22 0
2 23 0
2.42861e-17 23 0
2.77556e-17 24 0
2 23 0
2 24 0
2.77556e-17 24 0
2.42861e-17 25 0
2 24 0
2 25 0
2.42861e-17 25 0
2.77556e-17 26 0
2 25 0
2 26 0
2 14 0
2 15 0
4 14 0
4 15 0
2 15 0
2 16 0
4 15 0
4 16 0
2 16 0
2 17 0
4 16 0
4 17 0
2 17 0
2 18 0
4 17 0
4 18 0
2 18 0
2 19 0
4 18 0
4 19 0
2 19 0
2 20 0
4 19 0
4 20 0
2 20 0
2 21 0
4 20 0
4 21 0
2 21 0
2 22 0
4 21 0
4 22 0
2 22 0
2 23 0
4 22 0
4 23 0
2 23 0
2 24 0
4 23 0
4 24 0
2 24 0
2 25 0
4 24 0
4 25 0
2 25 0
2 26 0
4 25 0
4 26 0
4 13 0
4 14 0
6 13 0
6 14 0
4 14 0
4 15 0
6 14 0
6 15 0
4 15 0
4 16 0
6 15 0
6 16 0
4 16 0
4 17 0
6 16 0
6 17 0
4 17 0
4 18 0
6 17 0
6 18 0
4 18 0
4 19 0
6 18 0
6 19 0
4 19 0
4 20 0
6 19 0
6 20 0
4 20 0
4 21 0
6 20 0
6 21 0
4 21 0
4 22 0
6 21 0
6 22 0
4 22 0
4 23 0
6 22 0
6 23 0
4 23 0
4 24 0
6 23 0
6 24 0
4 24 0
4 25 0
6 24 0
6 25 0
4 25 0
4 26 0
6 25 0
6 26 0
6 13 0
6 14 0
7 13 0
7 14 0
7 13 0
7 14 0
8 13 0
8 14 0
6 14 0
6 15 0
7 14 0
7 15 0
6 15 0
6 16 0
7 15 0
7 16 0
7 15 0
7 16 0
8 15 0
8 16 0
7 14 0
7 15 0
8 14 0
8 15 0
6 16 0
6 17 0
7 16 0
7 17 0
6 17 0
6 18 0
7 17 0
7 18 0
7 17 0
7 18 0
8 17 0
8 18 0
7 16 0
7 17 0
8 16 0
8 17 0
6 18 0
6 19 0
7 18 0
7 19 0
6 19 0
6 20 0
7 19 0
7 20 0
7 19 0
7 20 0
8 19 0
8 20 0
7 18 0
7 19 0
8 18 0
8 19 0
6 20 0
6 21 0
7 20 0
7 21 0
6 21 0
6 22 0
7 21 0
7 22 0
7 21 0
7 22 0
8 21 0
8 22 0
7 20 0
7 21 0
8 20 0
8 21 0
6 22 0
6 23 0
7 22 0
7 23 0
6 23 0
6 24 0
7 23 0
7 24 0
7 23 0
7 24 0
8 23 0
8 24 0
7 22 0
7 23 0
8 22 0
8 23 0
6 24 0
6 25 0
7 24 0
7 25 0
6 25 0
6 26 0
7 25 0
7 26 0
7 25 0
7 26 0
8 25 0
8 26 0
7 24 0
7 25 0
8 24 0
8 25 0
12 22 0
12 23 0
14 22 0
14 23 0
8 13 0
8 14 0
9 13 0
9 14 0
9 13 0
9 14 0
10 13 0
10 14 0
8 14 0
8 15 0
9 14 0
9 15 0
8 15 0
8 16 0
9 15 0
9 16 0
9 15 0
9 16 0
10 15 0
10 16 0
9 14 0
9 15 0
10 14 0
10 15 0
8 16 0
8 17 0
9 16 0
9 17 0
8 17 0
8 18 0
9 17 0
9 18 0
9 17 0
9 18 0
10 17 0
10 18 0
9 16 0
9 17 0
10 16 0
10 17 0
8 18 0
8 19 0
9 18 0
9 19 0
8 19 0
8 20 0
9 19 0
9 20 0
9 19 0
9 20 0
10 19 0
10 20 0
9 18 0
9 19 0
10 18 0
10 19 0
8 20 0
8 21 0
9 20 0
9 21 0
8 21 0
8 22 0
9 21 0
9 22 0
9 21 0
9 22 0
10 21 0
10 22 0
9 20 0
9 21 0
10 20 0
10 21 0
8 22 0
8 23 0
9 22 0
9 23 0
8 23 0
8 24 0
9 23 0
9 24 0
9 23 0
9 24 0
10 23 0
10 24 0
9 22 0
9 23 0
10 22 0
10 23 0
8 24 0
8 25 0
9 24 0
9 25 0
8 25 0
8 26 0
9 25 0
9 26 0
9 25 0
9 26 0
10 25 0
10 26 0
9 24 0
9 25 0
10 24 0
10 25 0
10 16 0
10 17 0
11 16 0
11 17 0
10 17 0
10 18 0
11 17 0
11 18 0
10 18 0
10 19 0
11 18 0
11 19 0
10 19 0
10 20 0
11 19 0
11 20 0
11 19 0
11 20 0
12 19 0
12 20 0
10 20 0
10 21 0
11 20 0
11 21 0
10 21 0
10 22 0
11 21 0
11 22 0
11 21 0
11 22 0
12 21 0
12 22 0
11 20 0
11 21 0
12 20 0
12 21 0
10 22 0
10 23 0
11 22 0
11 23 0
10 23 0
10 24 0
11 23 0
11 24 0
11 23 0
11 24 0
12 23 0
12 24 0
11 22 0
11 23 0
12 22 0
12 23 0
10 24 0
10 25 0
11 24 0
11 25 0
10 25 0
10 26 0
11 25 0
11 26 0
11 25 0
11 26 0
12 25 0
12 26 0
11 24 0
11 25 0
12 24 0
12 25 0
14 18 0
14 19 0
16 18 0
16 19 0
14 19 0
14 20 0
16 19 0
16 20 0
14 20 0
14 21 0
16 20 0
16 21 0
14 21 0
14 22 0
16 21 0
16 22 0
14 22 0
14 23 0
16 22 0
16 23 0
14 23 0
14 24 0
16 23 0
16 24 0
16 14 0
16 15 0
18 14 0
18 15 0
16 15 0
16 16 0
18 15 0
18 16 0
16 16 0
16 17 0
18 16 0
18 17 0
16 17 0
16 18 0
18 17 0
18 18 0
16 18 0
16 19 0
18 18 0
18 19 0
16 19 0
16 20 0
18 19 0
18 20 0
16 20 0
16 21 0
18 20 0
18 21 0
16 21 0
16 22 0
18 21 0
18 22 0
16 22 0
16 23 0
18 22 0
18 23 0
16 23 0
16 24 0
18 23 0
18 24 0
18 14 0
18 15 0
20 14 0
20 15 0
18 15 0
18 16 0
20 15 0
20 16 0
18 16 0
18 17 0
20 16 0
20 17 0
18 17 0
18 18 0
20 17 0
20 18 0
18 18 0
18 20 0
20 18 0
20 20 0
18 20 0
18 22 0
20 20 0
20 22 0
18 22 0
18 24 0
20 22 0
20 24 0
20 14 0
20 16 0
22 14 0
22 16 0
20 16 0
20 18 0
22 16 0
22 18 0
20 18 0
20 20 0
22 18 0
22 20 0
20 20 0
20 22 0
22 20 0
22 22 0
20 22 0
20 24 0
22 22 0
22 24 0
22 12 0
22 13 0
24 12 0
24 13 0
22 13 0
22 14 0
24 13 0
24 14 0
22 14 0
22 16 0
24 14 0
24 16 0
22 16 0
22 18 0
24 16 0
24 18 0
22 18 0
22 20 0
24 18 0
24 20 0
22 20 0
22 22 0
24 20 0
24 22 0
22 22 0
22 24 0
24 22 0
24 24 0
26 10 0
26 11 0
27 10 0
27 11 0
26 9 0
26 10 0
27 9 0
27 10 0
24 12 0
24 13 0
26 12 0
26 13 0
24 10 0
24 11 0
25 10 0
25 11 0
25 10 0
25 11 0
26 10 0
26 11 0
24 11 0
24 12 0
25 11 0
25 12 0
25 11 0
25 12 0
26 11 0
26 12 0
24 8 0
24 9 0
25 8 0
25 9 0
24 9 0
24 10 0
25 9 0
25 10 0
25 9 0
25 10 0
26 9 0
26 10 0
22 10 0
22 11 0
23 10 0
23 11 0
23 10 0
23 11 0
24 10 0
24 11 0
22 11 0
22 12 0
23 11 0
23 12 0
23 11 0
23 12 0
24 11 0
24 12 0
22 8 0
22 9 0
23 8 0
23 9 0
22 9 0
22 10 0
23 9 0
23 10 0
23 9 0
23 10 0
24 9 0
24 10 0
23 8 0
23 9 0
24 8 0
24 9 0
22 7 0
22 8 0
23 7 0
23 8 0
23 7 0
23 8 0
24 7 0
24 8 0
20 12 0
20 13 0
22 12 0
22 13 0
20 13 0
20 14 0
22 13 0
22 14 0
20 10 0
20 11 0
21 10 0
21 11 0
21 10 0
21 11 0
22 10 0
22 11 0
20 11 0
20 12 0
21 11 0
21 12 0
21 11 0
21 12 0
22 11 0
22 12 0
20 8 0
20 9 0
21 8 0
21 9 0
20 9 0
20 10 0
21 9 0
21 10 0
21 9 0
21 10 0
22 9 0
22 10 0
21 8 0
21 9 0
22 8 0
22 9 0
20 7 0
20 8 0
21 7 0
21 8 0
21 7 0
21 8 0
22 7 0
22 8 0
18 12 0
18 13 0
19 12 0
19 13 0
19 12 0
19 13 0
20 12 0
20 13 0
18 13 0
18 14 0
19 13 0
19 14 0
19 13 0
19 14 0
20 13 0
20 14 0
18 10 0
18 11 0
19 10 0
19 11 0
18 11 0
18 12 0
19 11 0
19 12 0
19 11 0
19 12 0
20 11 0
20 12 0
19 10 0
19 11 0
20 10 0
20 11 0
18 8 0
18 9 0
19 8 0
19 9 0
18 9 0
18 10 0
19 9 0
19 10 0
19 9 0
19 10 0
20 9 0
20 10 0
19 8 0
19 9 0
20 8 0
20 9 0
19 7 0
19 8 0
20 7 0
20 8 0
16 12 0
16 13 0
17 12 0
17 13 0
17 12 0
17 13 0
18 12 0
18 13 0
16 13 0
16 14 0
17 13 0
17 14 0
17 13 0
17 14 0
18 13 0
18 14 0
16 10 0
16 11 0
17 10 0
17 11 0
16 11 0
16 12 0
17 11 0
17 12 0
17 11 0
17 12 0
18 11 0
18 12 0
17 10 0
17 11 0
18 10 0
18 11 0
16 8 0
16 9 0
17 8 0
17 9 0
16 9 0
16 10 0
17 9 0
17 10 0
17 9 0
17 10 0
18 9 0
18 10 0
17 8 0
17 9 0
18 8 0
18 9 0
14 16 0
14 17 0
16 16 0
16 17 0
14 17 0
14 18 0
16 17 0
16 18 0
14 14 0
14 15 0
16 14 0
16 15 0
14 15 0
14 16 0
16 15 0
16 16 0
14 12 0
14 13 0
15 12 0
15 13 0
15 12 0
15 13 0
16 12 0
16 13 0
14 13 0
14 14 0
15 13 0
15 14 0
15 13 0
15 14 0
16 13 0
16 14 0
14 10 0
14 11 0
15 10 0
15 11 0
14 11 0
14 12 0
15 11 0
15 12 0
15 11 0
15 12 0
16 11 0
16 12 0
15 10 0
15 11 0
16 10 0
16 11 0
14 9 0
14 10 0
15 9 0
15 10 0
15 9 0
15 10 0
16 9 0
16 10 0
12 20 0
12 21 0
14 20 0
14 21 0
12 21 0
12 22 0
14 21 0
14 22 0
12 18 0
12 19 0
14 18 0
14 19 0
12 19 0
12 20 0
14 19 0
14 20 0
12 16 0
12 17 0
13 16 0
13 17 0
13 16 0
13 17 0
14 16 0
14 17 0
12 17 0
12 18 0
13 17 0
13 18 0
13 17 0
13 18 0
14 17 0
14 18 0
12 14 0
12 15 0
13 14 0
13 15 0
12 15 0
12 16 0
13 15 0
13 16 0
13 15 0
13 16 0
14 15 0
14 16 0
13 14 0
13 15 0
14 14 0
14 15 0
12 12 0
12 13 0
13 12 0
13 13 0
12 13 0
12 14 0
13 13 0
13 14 0
13 13 0
13 14 0
14 13 0
14 14 0
13 12 0
13 13 0
14 12 0
14 13 0
12 10 0
12 11 0
13 10 0
13 11 0
12 11 0
12 12 0
13 11 0
13 12 0
13 11 0
13 12 0
14 11 0
14 12 0
13 10 0
13 11 0
14 10 0
14 11 0
13 9 0
13 10 0
14 9 0
14 10 0
10 11 0
10 12 0
11 11 0
11 12 0
11 11 0
11 12 0
12 11 0
12 12 0
11 10 0
11 11 0
12 10 0
12 11 0
10 12 0
10 13 0
11 12 0
11 13 0
10 13 0
10 14 0
11 13 0
11 14 0
11 13 0
11 14 0
12 13 0
12 14 0
11 12 0
11 13 0
12 12 0
12 13 0
10 14 0
10 15 0
11 14 0
11 15 0
10 15 0
10 16 0
11 15 0
11 16 0
11 15 0
11 16 0
12 15 0
12 16 0
11 14 0
11 15 0
12 14 0
12 15 0
11 17 0
11 18 0
12 17 0
12 18 0
11 16 0
11 17 0
12 16 0
12 17 0
11 18 0
11 19 0
12 18 0
12 19 0
-12 -12 0
-12 -8.16667 0
-8.16667 -12 0
-8.16667 -8.16667 0
-12 -8.16667 0
-12 -6 0
-8.16667 -8.16667 0
-8.16667 -6 0
-12 -6 0
-12 -4 0
-8.16667 -6 0
-8.16667 -4 0
-12 -4 0
-12 -2 0
-8.16667 -4 0
-8.16667 -2 0
-12 -2 0
-12 0 0
-8.16667 -2 0
-8.16667 0 0
-12 0 0
-12 2 0
-8.16667 0 0
-8.16667 2 0
-12 2 0
-12 4 0
-8.16667 2 0
-8.16667 4 0
-12 4 0
-12 6 0
-8.16667 4 0
-8.16667 6 0
-12 6 0
-12 8 0
-8.16667 6 0
-8.16667 8 0
-12 8 0
-12 10 0
-8.16667 8 0
-8.16667 10 0
-12 10 0
-12 12 0
-8.16667 10 0
-8.16667 12 0
-12 12 0
-12 14 0
-8.16667 12 0
-8.16667 14 0
-8.16667 -12 0
-8.16667 -8.16667 0
-6 -12 0
-6 -8.16667 0
-8.16667 -8.16667 0
-8.16667 -6 0
-6 -8.16667 0
-6 -6 0
-8.16667 -6 0
-8.16667 -4 0
-6 -6 0
-6 -4 0
-8.16667 -4 0
-8.16667 -2 0
-6 -4 0
-6 -2 0
-8.16667 -2 0
-8.16667 -2.77556e-17 0
-6 -2 0
-6 -2.77556e-17 0
-8.16667 -1.38778e-17 0
-8.16667 2 0
-6 2.77556e-17 0
-6 2 0
-8.16667 2 0
-8.16667 4 0
-6 2 0
-6 4 0
-8.16667 4 0
-8.16667 6 0
-6 4 0
-6 6 0
-8.16667 6 0
-8.16667 8 0
-6 6 0
-6 8 0
-8.16667 8 0
-8.16667 10 0
-6 8 0
-6 10 0
-8.16667 10 0
-8.16667 12 0
[...]
POINT_DATA 8820
SCALARS phi float 1
LOOKUP_TABLE default
3.81992e-05
2.3512e-05
2.2119e-05
3.98577e-05
2.3512e-05
4.57613e-05
3.98577e-05
8.42431e-06
4.57613e-05
-1.0879e-05
8.4243e-06
-7.14159e-05
-1.0879e-05
5.5854e-05
-7.14159e-05
4.73238e-05
5.5854e-05
3.25389e-05
4.73238e-05
2.10278e-05
2.2119e-05
3.98577e-05
-7.25357e-05
-2.58753e-05
3.98577e-05
8.42431e-06
-2.58753e-05
-0.000122633
8.42432e-06
-7.14159e-05
-0.000122633
-4.9687e-05
-7.14159e-05
4.73238e-05
-4.9687e-05
-0.000105516
-7.25357e-05
-2.58753e-05
0.000146151
2.03312e-05
-2.58753e-05
-0.000122633
2.03312e-05
0.000282683
-0.000122633
-4.9687e-05
0.000282683
0.000200079
-4.9687e-05
-0.000105516
0.000200079
0.000202376
-0.000105516
-6.99709e-05
0.000202376
0.000146568
0.000146151
2.03312e-05
-0.000260654
-1.52468e-05
2.03312e-05
0.000282683
-1.52468e-05
-0.000598325
0.000282683
0.000200079
-0.000598325
-0.000340678
0.000200079
0.000202376
-0.000340678
-0.000332688
0.000202376
0.000146568
-0.000332688
-0.000215359
0.000146568
0.000162138
-0.000215359
-0.000256297
-0.000260654
-1.52468e-05
0.00042835
0.000149326
-1.52468e-05
-0.000598325
0.000149326
0.000778267
-0.000598325
-0.000340678
0.000778267
0.000505577
-0.000340678
-0.000332688
0.000505577
0.000691556
-0.000332688
-0.000215359
0.000691557
0.000507538
-0.000215359
-0.000256297
0.000507538
0.000564958
0.00042835
0.000205457
-0.000568528
-0.000915397
0.000205457
0.000149326
-0.000915397
-0.00029834
0.000149326
0.000472426
-0.00029834
-0.000429727
0.000472426
0.000778267
-0.000429727
-0.00126737
0.000778267
0.000688406
-0.00126737
-0.00188707
0.000688406
0.000505577
-0.00188707
-0.000730603
0.000505577
0.000570106
-0.000730603
-0.000891533
0.000570106
0.000691556
-0.000891533
-0.00148057
0.000691556
0.000633653
-0.00148057
-0.00134227
0.000633653
0.000507538
-0.00134227
-0.000959472
0.000507538
0.000476494
-0.000959472
-0.000825067
0.000476494
0.000564958
-0.000825067
-0.00122325
-0.000568528
-0.000915397
0.0012138
0.00018992
-0.000915397
-0.00029834
0.00018992
0.000455031
-0.00029834
-0.000429727
0.000455032
0.00156363
-0.000429727
-0.00126737
0.00156363
0.0021379
-0.00126737
-0.00188707
0.0021379
0.00167686
-0.00188707
-0.000730603
0.00167686
0.00209676
-0.000730603
-0.000891533
0.00209676
0.0021458
-0.000891533
-0.00148057
0.0021458
0.00208015
-0.00148057
-0.00134227
0.00208015
0.00195637
-0.00134227
-0.000959472
0.00195637
0.00180351
-0.000959472
-0.000825067
0.00180351
0.00175044
-0.000825067
-0.00122325
0.00175044
0.00175631
0.00131066
0.0012138
0.00135025
0.0012885
0.0012138
0.00018992
0.0012885
-0.000333327
0.00018992
0.000455031
-0.000333328
0.000314447
0.000455031
0.00156363
0.000314447
0.000951604
0.00156363
0.0021379
0.000951605
0.00044891
0.0021379
0.00167686
0.00044891
-0.00133953
0.00167686
0.00209676
-0.00133953
0.00051547
0.00209676
0.0021458
0.00051547
0.00110286
0.0021458
0.00208015
0.00110286
0.000692838
0.00208015
0.00195637
0.000692838
0.000696126
0.00195637
0.00180351
0.000696125
0.000795578
0.00180351
0.00175044
0.000795579
0.00085726
0.00175044
0.00175631
0.000857261
0.000541134
0.00135025
0.0012885
0.00832533
0.00771319
0.00832533
0.00771319
-0.00338793
-0.00660476
0.0012885
-0.000333328
0.00771319
-0.000138206
-0.000333328
0.000314447
-0.000138206
0.00307901
-0.000138206
0.00307901
0.00917884
0.0245718
0.00771318
-0.000138206
-0.00660476
0.00917884
0.000314447
0.000951604
0.00307901
0.0110753
0.000951604
0.00044891
0.0110753
0.015229
0.0110753
0.015229
0.035445
0.111812
0.00307901
0.0110753
0.0245718
0.035445
0.00044891
-0.00133953
0.015229
0.0144703
-0.00133953
0.00051547
0.0144703
0.0138223
0.0144703
0.0138223
0.206422
0.136395
0.015229
0.0144703
0.111812
0.206422
0.00051547
0.00110286
0.0138223
0.0105927
0.00110286
0.000692838
0.0105927
0.00710548
0.0105927
0.00710549
0.0767847
0.028397
0.0138223
0.0105927
0.136395
0.0767847
0.000692838
0.000696126
0.00710549
0.00680727
0.000696126
0.000795579
0.00680727
0.0066258
0.00680727
0.0066258
0.024227
0.0231948
0.00710549
0.00680727
0.028397
0.024227
0.000795579
0.000857261
0.0066258
0.00667083
0.000857261
0.000541134
0.00667083
0.00590532
0.00667083
0.00590532
0.0214346
0.020946
0.0066258
0.00667083
0.0231948
0.0214346
0.99868
0.998456
0.998107
0.998128
-0.00338793
-0.00660476
0.236381
0.194747
0.236381
0.194747
0.494849
0.452022
-0.00660475
0.00917884
0.194747
0.0454696
0.00917884
0.0245718
0.0454696
0.26716
0.0454696
0.26716
0.328936
0.750785
0.194747
0.0454696
0.452022
0.328936
0.0245718
0.035445
0.26716
0.452643
0.035445
0.111812
0.452643
0.719149
0.452643
0.719149
0.921157
0.986204
0.26716
0.452643
0.750785
0.921157
0.111812
0.206422
0.719149
0.841176
0.206422
0.136395
0.841176
0.775685
0.841176
0.775685
0.985864
0.99065
0.719149
0.841176
0.986204
0.985864
0.136395
0.0767847
0.775685
0.633857
0.0767847
0.028397
0.633857
0.442812
0.633857
0.442812
0.976215
0.947628
0.775685
0.633857
0.99065
0.976215
0.028397
0.024227
0.442812
0.421018
0.024227
0.0231948
0.421018
0.41432
0.421018
0.41432
0.942253
0.942021
0.442812
0.421018
0.947628
0.942253
0.0231948
0.0214346
0.41432
0.411229
0.0214346
0.020946
0.411229
0.382942
0.411229
0.382942
0.940094
0.930373
0.41432
0.411229
0.942021
0.940094
0.750785
0.921157
0.951217
0.978799
0.921157
0.986204
0.978799
0.99914
0.986204
0.985864
0.99914
1.00075
0.985864
0.99065
1.00075
0.999712
1.00075
0.999712
1.00153
1.00127
0.99065
0.976215
0.999712
0.992295
0.976215
0.947628
0.992295
0.989219
0.992295
0.989219
0.999234
0.998681
0.999712
0.992295
1.00127
0.999234
0.947628
0.942253
0.989219
0.988406
0.942253
0.942021
0.988406
0.988598
0.988406
0.988598
0.998456
0.998387
0.989219
0.988406
0.99868
0.998456
0.942021
0.940094
0.988598
0.988122
0.940094
0.930373
0.988122
0.989181
0.988122
0.989181
0.998482
0.998648
0.988598
0.988122
0.998387
0.998482
0.999684
1.00072
1.0002
0.999934
1.00072
0.999595
0.999934
0.999502
0.999595
0.998889
0.999502
1.00022
0.998889
0.998107
1.00022
1.00083
0.998107
0.998128
1.00083
1.0007
0.998128
0.998274
1.0007
1.00042
1.00045
1.00127
0.999115
1.002
1.00127
1.00091
1.002
1.00069
1.00091
1.00081
1.00069
1.00049
1.00081
1.0002
1.00049
1
1.0002
0.999934
1
0.99991
0.999934
0.999502
0.99991
1.00001
0.999502
1.00022
1.00001
0.999817
1.00022
1.00083
0.999817
0.999527
1.00083
1.0007
0.999527
0.999439
1.0007
1.00042
0.999439
0.999506
0.999115
1.002
1.00059
1.00104
1.002
1.00069
1.00104
1.00108
1.00069
1.00049
1.00108
1.00046
1.00049
1
1.00046
0.999812
1
1.00001
0.999812
1.00001
1.00001
0.999527
1.00001
1.00017
0.999527
0.999506
1.00017
1.00022
1.00059
1.00108
0.999634
0.999732
1.00108
0.999812
0.999732
1.00033
0.999812
1.00001
1.00033
1
1.00001
1.00017
0.999999
1
1.00017
1.00022
1
1.00003
1.0038
0.995653
1.00393
0.999221
0.995653
0.999634
0.999221
0.999826
0.999634
0.999732
0.999826
1.00003
0.999732
1.00033
1.00003
0.99992
1.00033
0.999999
0.99992
0.999723
0.999999
1
0.999723
0.999838
1
1.00003
0.999838
0.999914
0.890487
0.985431
0.925299
0.985757
0.265168
0.890487
0.368172
0.925299
1.00393
0.999221
1.00479
0.996295
0.887673
0.990661
0.893632
0.990587
0.893632
0.990587
0.890487
0.985431
0.990661
1.00393
0.990587
1.00423
0.990587
1.00423
0.985431
1.00479
0.0166315
0.251846
0.00935686
0.265507
0.251846
0.887673
0.265507
0.893632
0.265507
0.893632
0.265168
0.890487
0.889102
0.99596
0.890832
0.990544
0.890832
0.990544
0.887673
0.990661
0.99596
1.0038
0.990544
1.00432
0.990544
1.00432
0.990661
1.00393
0.0330379
0.250743
-0.000266951
0.261784
0.250743
0.889102
0.261784
0.890832
0.261784
0.890832
0.251846
0.887673
-0.00026695
0.261784
0.0166315
0.251846
0.0116842
0.0330379
-0.00246281
-0.000266953
-0.00246281
-0.000266954
0.0043838
0.0166315
0.998353
0.999059
1.0038
0.995653
0.999059
1.00059
0.995653
0.999634
0.990861
1.00766
0.953311
1.00587
0.953311
1.00587
0.889102
0.99596
1.00766
0.998353
1.00587
1.00109
1.00587
1.00109
0.99596
1.0038
0.622383
0.935066
0.0332122
0.517372
0.935066
0.990861
0.517372
0.953311
0.517372
0.953311
0.250743
0.889102
0.0332122
0.517372
0.0330379
0.250743
0.158971
0.622383
-0.00418373
0.0332122
-0.00418373
0.0332122
0.0116842
0.0330379
1.00538
0.994058
0.998727
0.997107
0.998727
0.997107
0.998353
0.999059
0.994058
0.999115
0.997107
1.00005
0.997107
1.00005
0.999059
1.00059
0.996828
0.9813
0.992186
1.00463
0.981301
1.00538
1.00463
0.998727
1.00463
0.998727
1.00766
0.998353
0.992186
1.00463
0.990861
1.00766
0.517801
0.859975
0.660389
0.950896
0.859975
0.996828
0.950896
0.992186
0.950896
0.992186
0.935066
0.990861
0.660389
0.950896
0.622383
0.935066
0.24025
0.660389
0.158971
0.622383
0.971352
0.970319
1.00741
0.987143
1.00741
0.987143
1.00538
0.994058
0.970319
1.00045
0.987143
0.998789
0.987143
0.998789
0.994058
0.999115
0.795679
0.906906
0.948835
0.956608
0.906907
0.971352
0.956608
1.00741
0.956608
1.00741
0.9813
1.00538
0.948835
0.956608
0.996828
0.9813
0.210395
0.532222
0.397462
0.690272
0.532222
0.795679
0.690272
0.948835
0.690272
0.948835
0.859975
0.996828
0.397462
0.690272
0.517801
0.859975
0.997376
0.996951
1.00091
1.00081
0.99695
0.999684
1.00081
1.0002
0.99528
1.00095
1.00045
1.00127
1.00095
0.997376
1.00127
1.00091
0.899502
0.977718
0.94048
0.967316
0.94048
0.967316
0.971352
0.970319
0.977718
0.99528
0.967316
1.00303
0.967316
1.00303
0.970319
1.00045
0.180234
0.60572
0.27998
0.691342
0.60572
0.899502
0.691342
0.94048
0.691342
0.94048
0.906907
0.971352
0.27998
0.691342
0.795679
0.906906
0.0102334
0.180234
0.0266097
0.27998
0.0266097
0.27998
0.532222
0.795679
1.00127
0.999234
0.999595
0.998889
0.999234
0.998681
0.998889
0.998107
1.00307
1.00153
0.999684
1.00072
1.00153
1.00127
1.00072
0.999595
0.997306
0.996885
0.990199
0.999716
0.990199
0.999716
0.997376
0.996951
0.996885
1.00307
0.999717
1.0037
0.999717
1.0037
0.996951
0.999684
0.922628
0.934404
0.978637
1.00212
0.934404
0.997306
1.00212
0.990199
1.00212
0.990199
1.00095
0.997376
0.978637
1.00212
0.99528
1.00095
0.557915
0.801968
0.778285
0.972133
0.801968
0.922628
0.972133
0.978637
0.972133
0.978637
0.977718
0.99528
0.778285
0.972133
0.899502
0.977718
0.439634
0.494421
0.497523
0.578223
0.494421
0.557915
0.578223
0.778285
0.578222
0.778285
0.60572
0.899502
0.497523
0.578223
0.180234
0.60572
0.00966212
0.497523
0.0102334
0.180234
0.249508
0.428635
0.435084
0.484025
0.435084
0.484025
0.494421
0.557915
0.248078
0.435084
0.439634
0.494421
0.428635
0.494849
0.484025
0.551135
0.494849
0.452022
0.551135
0.640682
0.551135
0.640682
0.801968
0.922628
0.484025
0.551135
0.557915
0.801968
0.452022
0.328936
0.640682
0.719043
0.328936
0.750785
0.719043
0.951217
0.719043
0.951217
0.934404
0.997306
0.640682
0.719043
0.922628
0.934404
0.978799
0.99914
0.996885
1.00307
0.951217
0.978799
0.997306
0.996885
0.99914
1.00075
1.00307
1.00153
-4.5781e-09
-1.00898e-08
-5.64894e-09
-6.30027e-09
-1.00898e-08
-1.13056e-08
-6.30027e-09
-4.50399e-10
-1.13056e-08
3.5274e-08
-4.50399e-10
9.07428e-09
3.5274e-08
-4.67827e-08
9.07429e-09
1.00471e-07
-4.67827e-08
7.98932e-08
1.00471e-07
1.10927e-07
7.98932e-08
-1.15364e-07
1.10927e-07
-3.21564e-07
-1.15364e-07
7.11953e-08
-3.21564e-07
5.5211e-07
7.11953e-08
-1.28242e-06
5.5211e-07
-1.14835e-06
-1.28242e-06
2.99951e-06
-1.14835e-06
3.1525e-06
2.99951e-06
-5.35617e-06
3.1525e-06
-6.64649e-06
-5.35617e-06
5.03522e-05
-6.64649e-06
4.92657e-05
5.03522e-05
3.81992e-05
4.92657e-05
2.2119e-05
-5.64894e-09
-6.30027e-09
5.78553e-09
2.6999e-08
-6.30027e-09
-4.50395e-10
2.6999e-08
2.87324e-08
-4.50398e-10
9.07427e-09
2.87324e-08
-8.95197e-08
9.07429e-09
1.00471e-07
-8.95197e-08
2.51692e-07
1.00471e-07
1.10927e-07
2.51692e-07
-8.5985e-08
1.10927e-07
-3.21564e-07
-8.5985e-08
-5.4157e-08
-3.21564e-07
5.5211e-07
-5.4157e-08
4.94932e-07
5.5211e-07
-1.14835e-06
4.94932e-07
2.13967e-06
-1.14835e-06
3.1525e-06
2.13967e-06
-4.54777e-06
3.1525e-06
-6.64648e-06
-4.54777e-06
7.05303e-06
-6.64649e-06
4.92657e-05
7.05303e-06
-7.73053e-05
4.92657e-05
2.2119e-05
-7.73052e-05
-7.25357e-05
5.78553e-09
2.6999e-08
-8.72499e-09
-5.85844e-08
2.6999e-08
2.87324e-08
-5.85844e-08
-6.44296e-08
2.87324e-08
-8.95197e-08
-6.44296e-08
1.97189e-07
-8.95198e-08
2.51692e-07
1.97189e-07
-7.01217e-07
2.51692e-07
-8.5985e-08
-7.01218e-07
7.45881e-08
-8.5985e-08
-5.4157e-08
7.45881e-08
5.12364e-07
-5.4157e-08
4.94932e-07
5.12364e-07
-1.85746e-06
4.94932e-07
2.13967e-06
-1.85746e-06
-3.68858e-06
2.13967e-06
-4.54776e-06
-3.68858e-06
7.17064e-06
-4.54776e-06
7.05303e-06
7.17064e-06
-9.40226e-06
7.05303e-06
-7.73053e-05
-9.40227e-06
0.000128211
-7.73053e-05
-7.25357e-05
0.000128211
0.000146151
-8.72499e-09
-5.85844e-08
1.72926e-08
1.16863e-07
-5.85844e-08
-6.44296e-08
1.16863e-07
1.22972e-07
-6.44296e-08
1.97189e-07
1.22972e-07
-3.8176e-07
1.97189e-07
-7.01217e-07
-3.8176e-07
1.31057e-06
-7.01217e-07
7.45881e-08
1.31057e-06
-1.88773e-07
7.45881e-08
5.12364e-07
-1.88773e-07
-7.80283e-07
5.12364e-07
-1.85746e-06
-7.80283e-07
3.16953e-06
-1.85746e-06
-3.68858e-06
3.16953e-06
8.21854e-06
-3.68858e-06
7.17064e-06
8.21854e-06
-1.38264e-05
7.17064e-06
-9.40227e-06
-1.38264e-05
1.60284e-05
-9.40227e-06
0.000128211
1.60284e-05
-0.000231071
0.000128211
0.000146151
-0.000231071
-0.000260654
1.72926e-08
1.16863e-07
-3.42525e-08
-1.76657e-07
1.16863e-07
1.22972e-07
-1.76657e-07
-1.72612e-07
1.22972e-07
-3.8176e-07
-1.72612e-07
5.4534e-07
-3.8176e-07
1.31057e-06
5.4534e-07
-1.863e-06
1.31057e-06
-1.88773e-07
-1.86299e-06
2.39985e-07
-1.88773e-07
-7.80283e-07
2.39985e-07
1.29844e-06
-7.80283e-07
3.16953e-06
1.29844e-06
-5.15867e-06
3.16953e-06
8.21854e-06
-5.15867e-06
-1.05064e-05
8.21854e-06
-1.38264e-05
-1.05064e-05
2.43489e-05
-1.38264e-05
1.60284e-05
2.43489e-05
-3.45641e-05
1.60284e-05
-0.000231071
-3.45641e-05
0.000414253
-0.000231071
-0.000260654
0.000414253
0.00042835
-3.42525e-08
-1.76657e-07
3.97285e-07
9.47664e-07
-1.76657e-07
-1.72612e-07
9.47664e-07
7.15624e-08
-1.72612e-07
5.4534e-07
7.15623e-08
-1.03121e-06
5.4534e-07
-1.86299e-06
-1.03121e-06
4.61019e-06
-1.86299e-06
2.39985e-07
4.61019e-06
1.6522e-06
2.39985e-07
1.29844e-06
1.65221e-06
-7.59413e-06
1.29844e-06
-5.15867e-06
-7.59413e-06
2.06769e-05
-5.15866e-06
-1.05064e-05
2.06769e-05
1.22022e-05
-1.05064e-05
2.355e-05
1.22022e-05
-4.17688e-06
2.355e-05
2.43489e-05
-4.17688e-06
1.31823e-05
2.43489e-05
-4.2824e-05
1.31823e-05
0.000286628
-4.2824e-05
-3.45641e-05
0.000286628
0.000381941
-3.45641e-05
0.000168846
0.000381941
-0.000536921
0.000168846
0.000414253
-0.000536921
-0.000887558
0.000414253
0.00051563
-0.000887558
-0.000776938
0.00051563
0.00042835
-0.000776938
-0.000568528
3.97285e-07
9.47664e-07
1.07794e-06
6.82533e-07
9.47664e-07
7.15622e-08
6.82533e-07
-2.21641e-06
7.15623e-08
-1.03121e-06
-2.21641e-06
4.33495e-06
-1.03121e-06
4.61019e-06
4.33495e-06
-1.25877e-05
4.61019e-06
1.6522e-06
-1.25877e-05
8.51e-06
1.6522e-06
-7.59413e-06
8.51e-06
-3.74992e-06
-7.59413e-06
2.06769e-05
-3.74992e-06
-6.35216e-06
2.06769e-05
2.09432e-05
-6.35216e-06
-0.000138686
2.09432e-05
1.22022e-05
-0.000138686
-4.54611e-05
1.22022e-05
-4.17688e-06
-4.54611e-05
0.000276224
-4.17688e-06
1.31824e-05
0.000276224
0.000298575
1.31824e-05
0.000286628
0.000298575
0.000744245
0.000286628
0.000381941
0.000744245
0.000644111
0.000381941
-0.000536921
0.000644111
0.000111689
-0.000536921
-0.000887558
0.000111689
0.000887057
-0.000887558
-0.000776938
0.000887056
0.00131066
-0.000776938
-0.000568528
0.00131066
0.0012138
8.51e-06
-3.74993e-06
1.13591e-05
-2.4745e-05
-3.74992e-06
2.85946e-05
-2.4745e-05
-1.66719e-05
2.85946e-05
-6.35217e-06
-1.66719e-05
-2.18932e-05
-6.35216e-06
-0.000138686
-2.18932e-05
-5.45403e-05
-0.000138686
-4.54611e-05
-5.45403e-05
2.69529e-05
-4.54611e-05
0.000276224
2.69529e-05
0.000258261
0.000276224
0.000298575
0.000258261
0.000134679
0.000298575
0.000744245
0.000134679
-0.000224558
0.000744245
0.000644111
-0.000224558
2.70013e-05
0.000644111
0.000111689
2.70013e-05
0.00221889
0.000111689
0.000887056
0.00221889
0.000970228
0.000887056
0.00131066
0.000970228
0.00135025
-2.18932e-05
-5.45403e-05
-0.00026782
6.69976e-05
-5.45403e-05
2.69529e-05
6.69976e-05
-0.000596169
2.69529e-05
0.000258261
-0.000151539
0.000400645
-0.000151539
0.000400645
-0.000596169
-0.00186265
0.000258261
0.000134679
0.000400645
0.000255946
0.000400645
0.000255946
-0.00186265
-0.00033994
0.000134679
-0.000224559
0.000255946
-0.00159858
-0.000224558
2.70013e-05
-0.00159858
0.000257331
-0.00159858
0.000257331
0.00245702
-0.00190593
0.000255946
-0.00159858
-0.00033994
0.00245702
2.70013e-05
0.00221889
0.000257331
0.00438196
0.00221889
0.000970228
0.00438196
0.00468488
0.00438196
0.00468488
-0.00122351
-0.00339995
0.000257331
0.00438196
-0.00190593
-0.00122351
0.000970228
0.00135025
0.00468488
0.00832533
0.00468488
0.00832533
-0.00339995
-0.00338794
6.69977e-05
-0.000596169
0.000975409
-0.00086198
0.000975409
-0.00086198
0.00346875
0.00162011
-0.000596169
-0.00186265
-0.00086198
-0.00372793
-0.00186265
-0.00033994
-0.00372793
0.000874849
-0.00372793
0.000874849
-0.00167004
0.00319245
-0.00086198
-0.00372793
0.00162011
-0.00167004
-0.00033994
0.00245702
0.000874849
0.00161173
0.00245702
-0.00190593
0.00161173
0.0183427
0.00161173
0.0183427
0.00305577
0.0764886
0.000874849
0.00161173
0.00319245
0.00305577
-0.00190593
-0.00122351
0.0183427
0.0596469
-0.00122351
-0.00339995
0.0596469
0.157475
0.0596469
0.157475
0.249508
0.428635
0.0183427
0.0596469
0.0764886
0.249508
-0.00339995
-0.00338793
0.157475
0.236381
0.157475
0.236381
0.428635
0.494849
0.00319245
0.00305577
0.0100608
-0.00893161
0.00305577
0.0764886
-0.00893161
0.248078
-0.00893161
0.248078
0.0307367
0.439634
0.0764886
0.249508
0.248078
0.435084
1.07794e-06
6.82534e-07
7.7313e-07
7.20578e-07
6.82533e-07
-2.21641e-06
7.20578e-07
-1.20397e-06
-2.21641e-06
4.33495e-06
-1.20397e-06
2.11893e-06
4.33495e-06
-1.25877e-05
2.11893e-06
-2.45416e-06
-1.25877e-05
8.51e-06
-2.45416e-06
1.13591e-05
7.7313e-07
7.20578e-07
-2.97322e-06
-3.68362e-06
7.20578e-07
-1.20397e-06
-3.68362e-06
3.79616e-06
-1.20397e-06
2.11893e-06
3.79616e-06
-5.08913e-06
2.11893e-06
-2.45416e-06
-5.08913e-06
7.26707e-06
-2.45416e-06
1.13591e-05
7.26707e-06
-1.08984e-05
1.13591e-05
-2.4745e-05
-1.08984e-05
-2.81434e-05
-2.4745e-05
-1.66719e-05
-2.81434e-05
-0.000311733
-1.66719e-05
-2.18932e-05
-0.000311733
-0.00026782
-2.97322e-06
-3.68362e-06
-1.05222e-05
-1.17462e-05
-3.68362e-06
3.79616e-06
-1.17462e-05
1.49302e-05
3.79616e-06
-5.08913e-06
1.49302e-05
-2.25715e-05
-5.08913e-06
7.26707e-06
-2.25715e-05
4.2795e-05
7.26707e-06
-1.08984e-05
4.2795e-05
-5.83058e-05
-1.08984e-05
-2.81434e-05
-5.83058e-05
-1.05231e-05
-1.05222e-05
-1.17462e-05
-4.56966e-06
-1.7518e-06
-1.17462e-05
1.49302e-05
-1.75179e-06
9.89823e-06
1.49302e-05
-2.25715e-05
9.89823e-06
-2.06095e-05
-2.25715e-05
4.2795e-05
-2.06095e-05
5.34265e-05
4.2795e-05
-5.83057e-05
5.34265e-05
-4.77977e-05
-5.83058e-05
-1.05231e-05
-4.77977e-05
-1.85942e-06
-4.56966e-06
-1.75179e-06
1.35191e-05
1.32225e-05
-1.7518e-06
9.89823e-06
1.32225e-05
-2.05691e-05
9.89823e-06
-2.06095e-05
-2.05691e-05
3.48745e-05
-2.06095e-05
5.34265e-05
3.48745e-05
-7.6832e-05
5.34265e-05
-4.77977e-05
-7.68319e-05
6.13302e-05
-4.77977e-05
-1.85943e-06
6.13302e-05
0.000148231
1.35191e-05
1.32225e-05
-1.5061e-05
-1.37751e-05
1.32225e-05
-2.05691e-05
-1.37751e-05
2.32212e-05
-2.05691e-05
3.48745e-05
2.32212e-05
-3.95491e-05
3.48745e-05
-7.6832e-05
-3.9549e-05
0.000100374
-7.6832e-05
6.13302e-05
0.000100374
-8.42037e-05
6.13302e-05
0.000148231
-8.42037e-05
-9.88237e-05
-1.5061e-05
-1.37751e-05
2.23713e-05
3.31008e-05
-1.37751e-05
2.32212e-05
3.31008e-05
-2.05346e-05
2.32212e-05
-3.9549e-05
-2.05346e-05
1.49767e-05
-3.95491e-05
0.000100374
1.49767e-05
-2.50916e-05
0.000100374
-8.42037e-05
-2.50916e-05
6.07997e-05
-8.42037e-05
-9.88237e-05
6.07997e-05
0.000115623
2.23713e-05
3.31008e-05
-1.44764e-06
-6.61994e-06
3.31008e-05
-2.05346e-05
-6.61993e-06
-5.0373e-06
-2.05346e-05
1.49767e-05
-5.0373e-06
1.49687e-05
1.49767e-05
-2.50916e-05
1.49687e-05
-0.000145104
-2.50916e-05
6.07997e-05
-0.000145104
-2.78717e-05
6.07997e-05
0.000115623
-2.78717e-05
8.0434e-05
-1.44764e-06
-6.61994e-06
4.75299e-06
9.76119e-06
-6.61994e-06
-5.0373e-06
9.76119e-06
-5.26075e-07
-5.0373e-06
1.49687e-05
-5.26074e-07