# vtk DataFile Version 2.0
Hex test
ASCII
DATASET UNSTRUCTURED_GRID
POINTS 8852 float
-12 20 0
-12 22 0
-8.16667 20 0
-8.16667 22 0
-12 22 0
-12 24 0
-8.16667 22 0
-8.16667 24 0
-12 24 0
-12 26 0
-8.16667 24 0
-8.16667 26 0
-12 26 0
-12 28 0
-8.16667 26 0
-8.16667 28 0
-12 28 0
-12 30 0
-8.16667 28 0
-8.16667 30 0
-12 30 0
-12 32 0
-8.16667 30 0
-8.16667 32 0
-12 32 0
-12 34 0
-8.16667 32 0
-8.16667 34 0
-8.16667 20 0
-8.16667 22 0
-6 20 0
-6 22 0
-8.16667 22 0
-8.16667 24 0
-6 22 0
-6 24 0
-8.16667 24 0
-8.16667 26 0
-6 24 0
-6 26 0
-8.16667 26 0
-8.16667 28 0
-6 26 0
-6 28 0
-8.16667 28 0
-8.16667 30 0
-6 28 0
-6 30 0
-8.16667 30 0
-8.16667 32 0
-6 30 0
-6 32 0
-8.16667 32 0
-8.16667 34 0
-6 32 0
-6 34 0
-6 20 0
-6 22 0
-4 20 0
-4 22 0
-6 22 0
-6 24 0
-4 22 0
-4 24 0
-6 24 0
-6 26 0
-4 24 0
-4 26 0
-6 26 0
-6 28 0
-4 26 0
-4 28 0
-6 28 0
-6 30 0
-4 28 0
-4 30 0
-6 30 0
-6 32 0
-4 30 0
-4 32 0
-6 32 0
-6 34 0
-4 32 0
-4 34 0
-4 20 0
-4 22 0
-2 20 0
-2 22 0
-4 22 0
-4 24 0
-2 22 0
-2 24 0
-4 24 0
-4 26 0
-2 24 0
-2 26 0
-4 26 0
-4 28 0
-2 26 0
-2 28 0
-4 28 0
-4 30 0
-2 28 0
-2 30 0
-4 30 0
-4 32 0
-2 30 0
-2 32 0
-4 32 0
-4 34 0
-2 32 0
-2 34 0
-2 20 0
-2 22 0
-4.16334e-17 20 0
-5.55112e-17 22 0
-2 22 0
-2 24 0
-2.77556e-17 22 0
-5.55112e-17 24 0
-2 24 0
-2 26 0
-2.77556e-17 24 0
-5.55112e-17 26 0
-2 26 0
-2 28 0
-2.77556e-17 26 0
-5.55112e-17 28 0
-2 28 0
-2 30 0
-2.77556e-17 28 0
-5.55112e-17 30 0
-2 30 0
-2 32 0
-2.77556e-17 30 0
-5.55112e-17 32 0
-2 32 0
-2 34 0
-2.77556e-17 32 0
-5.55112e-17 34 0
-4.16334e-17 20 0
2.94903e-17 21 0
2 20 0
2 21 0
2.94903e-17 21 0
2.77556e-17 22 0
2 21 0
2 22 0
2.77556e-17 22 0
2.42861e-17 23 0
2 22 0
2 23 0
2.42861e-17 23 0
2.77556e-17 24 0
2 23 0
2 24 0
2.77556e-17 24 0
2.42861e-17 25 0
2 24 0
2 25 0
2.42861e-17 25 0
2.77556e-17 26 0
2 25 0
2 26 0
2.77556e-17 26 0
2.42861e-17 27 0
2 26 0
2 27 0
2.42861e-17 27 0
2.77556e-17 28 0
2 27 0
2 28 0
2.77556e-17 28 0
2.42861e-17 29 0
2 28 0
2 29 0
2.42861e-17 29 0
2.77556e-17 30 0
2 29 0
2 30 0
2.77556e-17 30 0
2.42861e-17 31 0
2 30 0
2 31 0
2.42861e-17 31 0
2.77556e-17 32 0
2 31 0
2 32 0
2.77556e-17 32 0
2.42861e-17 33 0
2 32 0
2 33 0
2.42861e-17 33 0
2.77556e-17 34 0
2 33 0
2 34 0
2 20 0
2 21 0
4 20 0
4 21 0
2 21 0
2 22 0
4 21 0
4 22 0
2 22 0
2 23 0
4 22 0
4 23 0
2 23 0
2 24 0
4 23 0
4 24 0
2 24 0
2 25 0
4 24 0
4 25 0
2 25 0
2 26 0
4 25 0
4 26 0
2 26 0
2 27 0
4 26 0
4 27 0
2 27 0
2 28 0
4 27 0
4 28 0
2 28 0
2 29 0
4 28 0
4 29 0
2 29 0
2 30 0
4 29 0
4 30 0
2 30 0
2 31 0
4 30 0
4 31 0
2 31 0
2 32 0
4 31 0
4 32 0
2 32 0
2 33 0
4 32 0
4 33 0
2 33 0
2 34 0
4 33 0
4 34 0
4 19 0
4 20 0
6 19 0
6 20 0
4 20 0
4 21 0
6 20 0
6 21 0
4 21 0
4 22 0
6 21 0
6 22 0
4 22 0
4 23 0
6 22 0
6 23 0
4 23 0
4 24 0
6 23 0
6 24 0
4 24 0
4 25 0
6 24 0
6 25 0
4 25 0
4 26 0
6 25 0
6 26 0
4 26 0
4 27 0
6 26 0
6 27 0
4 27 0
4 28 0
6 27 0
6 28 0
4 28 0
4 29 0
6 28 0
6 29 0
4 29 0
4 30 0
6 29 0
6 30 0
4 30 0
4 31 0
6 30 0
6 31 0
4 31 0
4 32 0
6 31 0
6 32 0
4 32 0
4 33 0
6 32 0
6 33 0
4 33 0
4 34 0
6 33 0
6 34 0
6 19 0
6 20 0
7 19 0
7 20 0
7 19 0
7 20 0
8 19 0
8 20 0
6 20 0
6 21 0
7 20 0
7 21 0
6 21 0
6 22 0
7 21 0
7 22 0
7 21 0
7 22 0
8 21 0
8 22 0
7 20 0
7 21 0
8 20 0
8 21 0
6 22 0
6 23 0
7 22 0
7 23 0
6 23 0
6 24 0
7 23 0
7 24 0
7 23 0
7 24 0
8 23 0
8 24 0
7 22 0
7 23 0
8 22 0
8 23 0
6 24 0
6 25 0
7 24 0
7 25 0
6 25 0
6 26 0
7 25 0
7 26 0
7 25 0
7 26 0
8 25 0
8 26 0
7 24 0
7 25 0
8 24 0
8 25 0
6 26 0
6 27 0
7 26 0
7 27 0
6 27 0
6 28 0
7 27 0
7 28 0
7 27 0
7 28 0
8 27 0
8 28 0
7 26 0
7 27 0
8 26 0
8 27 0
6 28 0
6 29 0
7 28 0
7 29 0
6 29 0
6 30 0
7 29 0
7 30 0
7 29 0
7 30 0
8 29 0
8 30 0
7 28 0
7 29 0
8 28 0
8 29 0
6 30 0
6 31 0
7 30 0
7 31 0
6 31 0
6 32 0
7 31 0
7 32 0
7 31 0
7 32 0
8 31 0
8 32 0
7 30 0
7 31 0
8 30 0
8 31 0
6 32 0
6 33 0
7 32 0
7 33 0
7 32 0
7 33 0
8 32 0
8 33 0
8 19 0
8 20 0
9 19 0
9 20 0
9 19 0
9 20 0
10 19 0
10 20 0
8 20 0
8 21 0
9 20 0
9 21 0
8 21 0
8 22 0
9 21 0
9 22 0
9 21 0
9 22 0
10 21 0
10 22 0
9 20 0
9 21 0
10 20 0
10 21 0
8 22 0
8 23 0
9 22 0
9 23 0
8 23 0
8 24 0
9 23 0
9 24 0
9 23 0
9 24 0
10 23 0
10 24 0
9 22 0
9 23 0
10 22 0
10 23 0
8 24 0
8 25 0
9 24 0
9 25 0
8 25 0
8 26 0
9 25 0
9 26 0
9 25 0
9 26 0
10 25 0
10 26 0
9 24 0
9 25 0
10 24 0
10 25 0
8 26 0
8 27 0
9 26 0
9 27 0
8 27 0
8 28 0
9 27 0
9 28 0
9 27 0
9 28 0
10 27 0
10 28 0
9 26 0
9 27 0
10 26 0
10 27 0
8 28 0
8 29 0
9 28 0
9 29 0
8 29 0
8 30 0
9 29 0
9 30 0
9 28 0
9 29 0
10 28 0
10 29 0
8 30 0
8 31 0
9 30 0
9 31 0
10 21 0
10 22 0
11 21 0
11 22 0
10 22 0
10 23 0
11 22 0
11 23 0
10 23 0
10 24 0
11 23 0
11 24 0
11 23 0
11 24 0
12 23 0
12 24 0
10 24 0
10 25 0
11 24 0
11 25 0
10 25 0
10 26 0
11 25 0
11 26 0
11 25 0
11 26 0
12 25 0
12 26 0
11 24 0
11 25 0
12 24 0
12 25 0
10 26 0
10 27 0
11 26 0
11 27 0
10 27 0
10 28 0
11 27 0
11 28 0
14 24 0
14 25 0
16 24 0
16 25 0
14 25 0
14 26 0
16 25 0
16 26 0
14 26 0
14 27 0
16 26 0
16 27 0
14 27 0
14 28 0
16 27 0
16 28 0
14 28 0
14 29 0
16 28 0
16 29 0
14 29 0
14 30 0
16 29 0
16 30 0
14 30 0
14 31 0
16 30 0
16 31 0
14 31 0
14 32 0
16 31 0
16 32 0
16 24 0
16 25 0
18 24 0
18 25 0
16 25 0
16 26 0
18 25 0
18 26 0
16 26 0
16 27 0
18 26 0
18 27 0
16 27 0
16 28 0
18 27 0
18 28 0
16 28 0
16 29 0
18 28 0
18 29 0
16 29 0
16 30 0
18 29 0
18 30 0
16 30 0
16 31 0
18 30 0
18 31 0
16 31 0
16 32 0
18 31 0
18 32 0
16 32 0
16 33 0
18 32 0
18 33 0
16 33 0
16 34 0
18 33 0
18 34 0
16 34 0
16 35 0
18 34 0
18 35 0
16 35 0
16 36 0
18 35 0
18 36 0
18 24 0
18 26 0
20 24 0
20 26 0
18 26 0
18 28 0
20 26 0
20 28 0
18 28 0
18 30 0
20 28 0
20 30 0
18 30 0
18 32 0
20 30 0
20 32 0
18 32 0
18 33 0
20 32 0
20 33 0
18 33 0
18 34 0
20 33 0
20 34 0
18 34 0
18 35 0
20 34 0
20 35 0
18 35 0
18 36 0
20 35 0
20 36 0
20 24 0
20 26 0
22 24 0
22 26 0
20 26 0
20 28 0
22 26 0
22 28 0
20 28 0
20 30 0
22 28 0
22 30 0
20 30 0
20 32 0
22 30 0
22 32 0
20 32 0
20 34 0
22 32 0
22 34 0
20 34 0
20 36 0
22 34 0
22 36 0
22 26 0
22 28 0
24 26 0
24 28 0
22 28 0
22 30 0
24 28 0
24 30 0
22 30 0
22 32 0
24 30 0
24 32 0
22 32 0
22 34 0
24 32 0
24 34 0
22 34 0
22 36 0
24 34 0
24 36 0
22 38 0
22 39 0
23 38 0
23 39 0
23 38 0
23 39 0
24 38 0
24 39 0
22 36 0
22 37 0
23 36 0
23 37 0
23 36 0
23 37 0
24 36 0
24 37 0
22 37 0
22 38 0
23 37 0
23 38 0
23 37 0
23 38 0
24 37 0
24 38 0
20 40 0
20 41 0
21 40 0
21 41 0
20 38 0
20 39 0
21 38 0
21 39 0
20 39 0
20 40 0
21 39 0
21 40 0
21 39 0
21 40 0
22 39 0
22 40 0
21 38 0
21 39 0
22 38 0
22 39 0
20 36 0
20 37 0
21 36 0
21 37 0
21 36 0
21 37 0
22 36 0
22 37 0
20 37 0
20 38 0
21 37 0
21 38 0
21 37 0
21 38 0
22 37 0
22 38 0
18 40 0
18 41 0
19 40 0
19 41 0
19 40 0
19 41 0
20 40 0
20 41 0
18 38 0
18 39 0
19 38 0
19 39 0
18 39 0
18 40 0
19 39 0
19 40 0
19 39 0
19 40 0
20 39 0
20 40 0
19 38 0
19 39 0
20 38 0
20 39 0
18 36 0
18 37 0
19 36 0
19 37 0
19 36 0
19 37 0
20 36 0
20 37 0
18 37 0
18 38 0
19 37 0
19 38 0
19 37 0
19 38 0
20 37 0
20 38 0
16 40 0
16 41 0
17 40 0
17 41 0
17 40 0
17 41 0
18 40 0
18 41 0
16 38 0
16 39 0
17 38 0
17 39 0
16 39 0
16 40 0
17 39 0
17 40 0
17 39 0
17 40 0
18 39 0
18 40 0
17 38 0
17 39 0
18 38 0
18 39 0
16 36 0
16 37 0
17 36 0
17 37 0
17 36 0
17 37 0
18 36 0
18 37 0
16 37 0
16 38 0
17 37 0
17 38 0
17 37 0
17 38 0
18 37 0
18 38 0
14 38 0
14 39 0
15 38 0
15 39 0
14 39 0
14 40 0
15 39 0
15 40 0
15 39 0
15 40 0
16 39 0
16 40 0
15 38 0
15 39 0
16 38 0
16 39 0
14 36 0
14 37 0
15 36 0
15 37 0
15 36 0
15 37 0
16 36 0
16 37 0
14 37 0
14 38 0
15 37 0
15 38 0
15 37 0
15 38 0
16 37 0
16 38 0
14 34 0
14 35 0
16 34 0
16 35 0
14 35 0
14 36 0
16 35 0
16 36 0
14 32 0
14 33 0
16 32 0
16 33 0
14 33 0
14 34 0
16 33 0
16 34 0
12 38 0
12 39 0
13 38 0
13 39 0
13 39 0
13 40 0
14 39 0
14 40 0
13 38 0
13 39 0
14 38 0
14 39 0
12 36 0
12 37 0
13 36 0
13 37 0
12 37 0
12 38 0
13 37 0
13 38 0
13 37 0
13 38 0
14 37 0
14 38 0
13 36 0
13 37 0
14 36 0
14 37 0
12 34 0
12 35 0
13 34 0
13 35 0
12 35 0
12 36 0
13 35 0
13 36 0
13 35 0
13 36 0
14 35 0
14 36 0
13 34 0
13 35 0
14 34 0
14 35 0
12 32 0
12 33 0
13 32 0
13 33 0
13 32 0
13 33 0
14 32 0
14 33 0
12 33 0
12 34 0
13 33 0
13 34 0
13 33 0
13 34 0
14 33 0
14 34 0
12 30 0
12 31 0
14 30 0
14 31 0
12 31 0
12 32 0
14 31 0
14 32 0
12 28 0
12 29 0
14 28 0
14 29 0
12 29 0
12 30 0
14 29 0
14 30 0
12 26 0
12 27 0
14 26 0
14 27 0
12 27 0
12 28 0
14 27 0
14 28 0
12 24 0
12 25 0
14 24 0
14 25 0
9 29 0
9 30 0
10 29 0
10 30 0
8 31 0
8 32 0
9 31 0
9 32 0
9 31 0
9 32 0
10 31 0
10 32 0
9 30 0
9 31 0
10 30 0
10 31 0
8 32 0
8 33 0
9 32 0
9 33 0
8 33 0
8 34 0
9 33 0
9 34 0
9 33 0
9 34 0
10 33 0
10 34 0
9 32 0
9 33 0
10 32 0
10 33 0
9 35 0
9 36 0
10 35 0
10 36 0
9 34 0
9 35 0
10 34 0
10 35 0
11 38 0
11 39 0
12 38 0
12 39 0
10 36 0
10 37 0
11 36 0
11 37 0
10 37 0
10 38 0
11 37 0
11 38 0
11 37 0
11 38 0
12 37 0
12 38 0
11 36 0
11 37 0
12 36 0
12 37 0
11 27 0
11 28 0
12 27 0
12 28 0
11 26 0
11 27 0
12 26 0
12 27 0
10 28 0
10 29 0
11 28 0
11 29 0
10 29 0
10 30 0
11 29 0
11 30 0
11 29 0
11 30 0
12 29 0
12 30 0
11 28 0
11 29 0
12 28 0
12 29 0
10 30 0
10 31 0
11 30 0
11 31 0
10 31 0
10 32 0
11 31 0
11 32 0
11 31 0
11 32 0
12 31 0
12 32 0
11 30 0
11 31 0
12 30 0
12 31 0
10 32 0
10 33 0
11 32 0
11 33 0
10 33 0
10 34 0
11 33 0
11 34 0
11 33 0
11 34 0
12 33 0
12 34 0
11 32 0
11 33 0
12 32 0
12 33 0
10 34 0
10 35 0
11 34 0
11 35 0
10 35 0
10 36 0
11 35 0
11 36 0
11 35 0
11 36 0
12 35 0
12 36 0
11 34 0
11 35 0
12 34 0
12 35 0
-12 34 0
-12 36 0
-8.16667 34 0
-8.16667 36 0
-12 36 0
-12 38 0
-8.16667 36 0
-8.16667 38 0
-12 38 0
-12 40 0
-8.16667 38 0
-8.16667 40 0
-12 40 0
-12 42 0
-8.16667 40 0
-8.16667 42 0
-12 42 0
-12 44 0
-8.16667 42 0
-8.16667 44 0
-12 44 0
-12 46 0
-8.16667 44 0
-8.16667 46 0
-12 46 0
-12 48 0
-8.16667 46 0
-8.16667 48 0
-12 48 0
-12 50 0
-8.16667 48 0
-8.16667 50 0
-12 50 0
-12 52 0
-8.16667 50 0
-8.16667 52 0
-12 52 0
-12 54 0
-8.16667 52 0
-8.16667 54 0
-12 54 0
-12 56.1667 0
-8.16667 54 0
-8.16667 56.1667 0
-12 56.1667 0
-12 60 0
-8.16667 56.1667 0
-8.16667 60 0
-8.16667 34 0
-8.16667 36 0
-6 34 0
-6 36 0
-8.16667 36 0
-8.16667 38 0
-6 36 0
-6 38 0
-8.16667 38 0
-8.16667 40 0
-6 38 0
-6 40 0
-8.16667 40 0
-8.16667 42 0
-6 40 0
-6 42 0
[...]
POINT_DATA 8852
SCALARS phi float 1
LOOKUP_TABLE default
9.98237e-06
5.51704e-05
-2.19013e-05
5.11709e-05
5.51704e-05
3.44946e-05
5.11709e-05
2.96318e-05
3.44946e-05
4.55217e-05
2.96318e-05
4.23092e-05
4.55217e-05
2.81425e-05
4.23092e-05
-8.59647e-06
2.81425e-05
4.30529e-05
-8.59648e-06
3.42565e-05
4.30529e-05
3.81714e-05
3.42565e-05
4.5622e-05
3.81714e-05
2.9076e-05
4.5622e-05
2.38358e-05
-2.19013e-05
5.11709e-05
-4.68594e-05
-0.000100564
5.11709e-05
2.96318e-05
-0.000100564
-6.61255e-05
2.96318e-05
4.23092e-05
-6.61256e-05
-8.39182e-05
4.23092e-05
-8.59647e-06
-8.39182e-05
-8.53798e-05
-8.59647e-06
3.42565e-05
-8.53798e-05
-8.81062e-05
3.42565e-05
4.5622e-05
-8.81062e-05
-5.68505e-05
4.5622e-05
2.38358e-05
-5.68505e-05
-5.12106e-05
-4.68594e-05
-0.000100564
0.000136474
0.000187086
-0.000100564
-6.61255e-05
0.000187086
0.000127381
-6.61255e-05
-8.39182e-05
0.000127381
0.000154794
-8.39182e-05
-8.53799e-05
0.000154794
0.00021366
-8.53798e-05
-8.81062e-05
0.00021366
0.000174396
-8.81062e-05
-5.68505e-05
0.000174396
8.60888e-05
-5.68505e-05
-5.12106e-05
8.60888e-05
9.43924e-05
0.000136474
0.000187086
-0.00023931
-0.000325022
0.000187086
0.000127381
-0.000325022
-0.000207111
0.000127381
0.000154794
-0.000207111
-0.000265744
0.000154794
0.00021366
-0.000265744
-0.000417959
0.00021366
0.000174396
-0.000417959
-0.000352804
0.000174396
8.60888e-05
-0.000352804
-0.000150527
8.60888e-05
9.43924e-05
-0.000150527
-0.000187914
-0.00023931
-0.000325022
0.000353099
0.000649715
-0.000325022
-0.000207111
0.000649715
0.000443619
-0.000207111
-0.000265744
0.000443619
0.000540785
-0.000265744
-0.000417959
0.000540785
0.000626424
-0.000417959
-0.000352804
0.000626424
0.000566256
-0.000352804
-0.000150527
0.000566256
0.000313515
-0.000150527
-0.000187914
0.000313515
0.000293404
0.000353099
0.000496335
-0.000729834
-0.000736425
0.000496335
0.000649715
-0.000736425
-0.00136777
0.000649715
0.000576367
-0.00136777
-0.001187
0.000576367
0.000443619
-0.001187
-0.000788314
0.000443619
0.000453267
-0.000788314
-0.000801261
0.000453267
0.000540785
-0.000801261
-0.00115393
0.000540785
0.000600244
-0.00115393
-0.00104092
0.000600244
0.000626424
-0.00104092
-0.00113519
0.000626424
0.000627715
-0.00113519
-0.00131816
0.000627715
0.000566256
-0.00131816
-0.000762165
0.000566256
0.000424636
-0.000762165
-0.00098622
0.000424636
0.000313515
-0.00098622
-0.000515658
0.000313515
0.000318061
-0.000515658
-0.000503349
0.000318061
0.000293404
-0.000503349
-0.000465229
-0.000729834
-0.000736425
0.0014228
0.00183637
-0.000736425
-0.00136777
0.00183637
0.00186044
-0.00136777
-0.001187
0.00186044
0.00169707
-0.001187
-0.000788314
0.00169707
0.00152279
-0.000788314
-0.000801261
0.00152279
0.00152476
-0.000801261
-0.00115393
0.00152476
0.00157948
-0.00115393
-0.00104092
0.00157948
0.00194146
-0.00104092
-0.00113519
0.00194146
0.00200891
-0.00113519
-0.00131816
0.00200891
0.00175159
-0.00131816
-0.000762165
0.00175159
0.00179637
-0.000762165
-0.000986221
0.00179637
0.000986095
-0.000986221
-0.000515658
0.000986095
0.000896092
-0.000515658
-0.000503349
0.000896092
0.000930995
-0.000503349
-0.000465229
0.000930995
0.000803469
0.00114426
0.0014228
-0.000178771
0.000805708
0.0014228
0.00183637
0.000805708
0.00128285
0.00183637
0.00186044
0.00128285
0.000766387
0.00186044
0.00169707
0.000766388
0.000749556
0.00169707
0.00152279
0.000749556
0.000840852
0.00152279
0.00152476
0.000840852
0.000848551
0.00152476
0.00157948
0.000848551
0.000617232
0.00157948
0.00194146
0.000617232
0.00115981
0.00194146
0.00200891
0.00115981
0.00104611
0.00200891
0.00175159
0.00104611
0.000441369
0.00175159
0.00179637
0.000441369
0.00129914
0.00179637
0.000986094
0.00129914
0.0004773
0.000986094
0.000896092
0.0004773
0.000515574
0.000896092
0.000930995
0.000515573
-8.23717e-05
0.000930995
0.000803469
-8.23712e-05
0.00022815
-0.000178772
0.000805708
0.0125498
0.0112108
0.0125498
0.0112108
0.19012
0.14028
0.000805708
0.00128285
0.0112108
0.00995518
0.00128285
0.000766387
0.00995519
0.00705764
0.00995519
0.00705764
0.0766661
0.0328199
0.0112108
0.00995518
0.14028
0.0766661
0.000766388
0.000749556
0.00705764
0.00647927
0.000749556
0.000840852
0.00647927
0.00631796
0.00647927
0.00631796
0.0252607
0.0249011
0.00705764
0.00647927
0.0328199
0.0252607
0.000840851
0.000848552
0.00631796
0.0062745
0.000848551
0.000617232
0.0062745
0.00582747
0.0062745
0.00582747
0.022684
0.0225484
0.00631796
0.0062745
0.0249011
0.022684
0.000617232
0.00115981
0.00582747
0.00846388
0.00115981
0.00104611
0.00846388
0.0109235
0.00846387
0.0109235
0.0410048
0.114867
0.00582747
0.00846387
0.0225484
0.0410048
0.00104611
0.000441369
0.0109235
0.0109699
0.000441369
0.00129914
0.0109699
0.0111814
0.0109699
0.0111814
0.139074
0.0666788
0.0109235
0.0109699
0.114867
0.139074
0.00129914
0.0004773
0.0111814
0.00397081
0.0004773
0.000515574
0.00397081
0.00535404
0.00397081
0.00535404
0.0139681
0.0287771
0.0111814
0.00397081
0.0666788
0.0139681
0.000515574
-8.23711e-05
0.00535404
0.00935719
0.00535404
0.00935719
0.0287771
0.0706739
0.19012
0.14028
0.829479
0.771625
0.829479
0.771625
0.988561
0.988438
0.14028
0.0766661
0.771625
0.632217
0.0766661
0.0328199
0.632217
0.450196
0.632217
0.450196
0.976759
0.947681
0.771625
0.632217
0.988438
0.976759
0.0328199
0.0252607
0.450196
0.414559
0.0252607
0.0249011
0.414559
0.408919
0.414559
0.408919
0.939534
0.939598
0.450196
0.414559
0.947681
0.939534
0.0249011
0.022684
0.408919
0.402291
0.022684
0.0225484
0.402291
0.384961
0.402291
0.384961
0.936188
0.931011
0.408919
0.402291
0.939598
0.936188
0.0225484
0.0410048
0.384961
0.508783
0.0410048
0.114867
0.508783
0.753722
0.508783
0.753722
0.958128
0.99115
0.384961
0.508783
0.931011
0.958128
0.114867
0.139074
0.753722
0.78397
0.139074
0.0666788
0.78397
0.598859
0.753722
0.78397
0.99115
0.98763
0.0666788
0.0139681
0.598859
0.303685
0.976759
0.947681
0.993652
0.990345
0.947681
0.939534
0.990345
0.989831
0.939534
0.939598
0.989831
0.989756
0.989831
0.989756
0.998438
0.998291
0.939598
0.936188
0.989756
0.98961
0.936188
0.931011
0.98961
0.989891
0.98961
0.989891
0.998418
0.998449
0.989756
0.98961
0.998291
0.998418
0.931011
0.958128
0.989891
0.990879
0.958128
0.99115
0.990879
0.998939
0.998408
0.998244
1.00042
1.00072
0.998244
0.998239
1.00072
1.00083
0.998239
0.99873
1.00083
1.00011
0.99873
0.999598
1.00011
1.00014
0.999598
0.999572
1.00014
1.00078
0.999572
0.998882
1.00078
1.00122
0.998882
0.9978
1.00122
1.00159
0.9978
0.994897
1.00159
1.00335
1.00042
1.00072
0.999546
0.99965
1.00072
1.00083
0.99965
0.999655
1.00083
1.00011
0.999655
0.999522
1.00011
1.00014
0.999522
0.999686
1.00014
1.00078
0.999686
1.00035
1.00078
1.00122
1.00035
1.00031
1.00122
1.00159
1.00031
0.998873
1.00159
1.00335
0.998873
0.998804
1.00335
1.00126
0.998804
1.00089
1.00126
0.997247
1.00089
0.999364
0.997247
0.994783
0.999364
0.999168
0.994783
0.985328
0.999168
0.995756
0.999546
0.999655
1.00021
1.00016
0.999655
0.999686
1.00016
1.0001
0.999686
1.00031
1.0001
0.999877
1.00031
0.998804
0.999877
1.00078
0.998804
1.00089
1.00078
1.00006
1.00089
0.999364
1.00006
0.999813
0.999364
0.999168
0.999813
1.00084
0.999168
0.995756
1.00084
0.99911
1.00021
1.00016
1.00004
0.999827
1.00016
1.0001
0.999827
1.00039
1.0001
0.999877
1.00039
0.999545
0.999877
1.00078
0.999545
1.00063
1.00078
0.999813
1.00063
0.997968
0.999813
0.99911
0.997968
0.998361
0.999827
1.00039
0.999722
1.00004
1.00039
0.999545
1.00004
0.999192
0.999545
1.00063
0.999192
1.00072
1.00063
0.997968
1.00072
0.998633
0.997968
0.998361
0.998633
0.999296
0.930304
0.368637
0.936104
0.393848
0.936104
0.393848
0.960981
0.515232
0.998361
0.985822
0.998799
0.988267
0.998799
0.988267
0.999296
0.993353
0.985822
0.930304
0.988267
0.936104
0.988267
0.936104
0.993353
0.960981
0.0944965
0.0142654
0.0385553
0.0112745
0.98008
0.68661
0.94809
0.468844
0.68661
0.0944965
0.468844
0.0385553
0.468844
0.0385553
0.368637
0.0169189
0.94809
0.468844
0.930304
0.368637
0.99911
0.998578
0.998792
0.992989
0.998792
0.992989
0.998361
0.985822
0.998578
0.98008
0.992989
0.94809
0.992989
0.94809
0.985822
0.930304
0.415663
0.0594137
0.313169
0.0272629
0.313169
0.0272629
0.0944965
0.0142654
0.980842
0.877473
0.984254
0.881782
0.877473
0.415663
0.881782
0.313169
0.881782
0.313169
0.68661
0.0944965
0.984254
0.881782
0.98008
0.68661
0.995756
0.997245
0.998142
0.993977
0.998142
0.993977
0.99911
0.998578
0.997245
0.980842
0.993977
0.984254
0.993977
0.984254
0.998578
0.980079
0.203474
0.0297156
0.34483
0.0585103
0.34483
0.0585103
0.415663
0.0594137
0.735153
0.510713
0.931495
0.744166
0.510713
0.203474
0.744166
0.34483
0.744166
0.34483
0.877473
0.415663
0.931495
0.744166
0.980842
0.877473
0.985328
0.933894
0.991839
0.994581
0.991839
0.994581
0.995756
0.997245
0.933894
0.735153
0.994581
0.931495
0.994581
0.931495
0.997245
0.980842
0.338012
0.0887207
0.471722
0.265589
0.0887207
0.0150985
0.265589
0.0692675
0.265589
0.0692675
0.510713
0.203474
0.471722
0.265589
0.735153
0.510713
0.908563
0.66008
0.968579
0.8062
0.968579
0.8062
0.985328
0.933894
0.66008
0.338012
0.8062
0.471722
0.8062
0.471722
0.933894
0.735153
0.998307
0.983851
0.997247
0.994783
0.983851
0.908563
0.994783
0.985328
0.994897
0.990392
1.00335
1.00126
0.990392
0.998307
1.00126
0.997247
0.0346745
0.00414441
0.156771
0.0270103
0.0270103
0.00369594
0.0887207
0.0150985
0.156771
0.0270103
0.338012
0.0887207
0.566153
0.215058
0.765874
0.442009
0.215058
0.0346745
0.442009
0.156771
0.442009
0.156771
0.66008
0.338012
0.765874
0.442009
0.908563
0.66008
0.944001
0.827866
0.970196
0.949192
0.827866
0.566153
0.949192
0.765874
0.949192
0.765874
0.983851
0.908563
0.970196
0.949192
0.998307
0.983851
0.993218
0.974213
1.00052
1.00122
1.00052
1.00122
0.994897
0.990392
0.974213
0.944001
1.00122
0.970196
1.00122
0.970196
0.990392
0.998307
1.0009
0.997821
0.998882
0.9978
0.997821
0.993218
0.9978
0.994897
1.00044
1.00071
0.999598
0.999572
1.00071
1.0009
0.999572
0.998882
0.998449
0.998534
0.998239
0.99873
0.998534
1.00044
0.99873
0.999598
0.998291
0.998418
0.998408
0.998244
0.78397
0.598859
0.98763
0.975084
0.0139681
0.0287771
0.303685
0.349907
0.303685
0.349907
0.897719
0.874302
0.598859
0.303685
0.975084
0.897719
0.0287771
0.0706739
0.349907
0.376618
0.0706739
0.0543842
0.376618
0.303813
0.376618
0.303813
0.616111
0.489977
0.349907
0.376618
0.874302
0.616111
0.186111
0.0657416
0.466738
0.265574
0.303813
0.186111
0.489977
0.466738
0.0163108
0.00108445
0.0346745
0.00414441
0.265574
0.0433257
0.464973
0.147103
0.0433257
0.00524257
0.147103
0.0163108
0.147103
0.0163108
0.215058
0.0346745
0.464973
0.147103
0.566153
0.215058
0.990879
0.998939
0.998534
1.00044
0.989891
0.990879
0.998449
0.998534
0.99115
0.98763
0.998939
0.998394
0.98763
0.975084
0.998394
0.996295
0.998394
0.996295
1.00071
1.0009
0.998939
0.998394
1.00044
1.00071
0.975084
0.897719
0.996295
0.982059
0.897719
0.874302
0.982059
0.971184
0.982059
0.971184
0.997821
0.993218
0.996295
0.982059
1.0009
0.997821
0.874302
0.616111
0.971184
0.793202
0.616111
0.489977
0.793202
0.648375
0.793202
0.648375
0.974213
0.944001
0.971184
0.793202
0.993218
0.974213
0.489977
0.466738
0.648375
0.629748
0.466738
0.265574
0.629748
0.464973
0.629748
0.464973
0.827866
0.566153
0.648375
0.629748
0.944001
0.827866
2.9076e-05
-4.99056e-06
2.38358e-05
-4.64969e-06
-4.99056e-06
4.14257e-06
-4.64969e-06
3.49166e-06
4.14257e-06
-1.88765e-06
3.49166e-06
-1.56425e-06
-1.88765e-06
7.92923e-07
-1.56425e-06
5.80228e-07
7.92923e-07
-2.96575e-07
5.80228e-07
-1.56257e-07
-2.96575e-07
2.43496e-07
-1.56258e-07
2.63863e-07
2.43496e-07
-9.18111e-08
2.63863e-07
-9.00169e-08
-9.18111e-08
6.09257e-08
-9.00169e-08
6.71594e-08
6.09257e-08
-3.06733e-08
6.71594e-08
-3.06889e-08
-3.06733e-08
1.59244e-08
-3.06889e-08
1.78045e-08
1.59244e-08
-7.44824e-09
1.78045e-08
-1.00964e-08
-7.44824e-09
-7.07538e-09
-1.00964e-08
-8.29894e-09
2.38358e-05
-4.64969e-06
-5.12106e-05
8.81245e-06
-4.64969e-06
3.49166e-06
8.81245e-06
-7.5275e-06
3.49166e-06
-1.56425e-06
-7.5275e-06
3.39468e-06
-1.56425e-06
5.80228e-07
3.39467e-06
-1.52706e-06
5.80227e-07
-1.56257e-07
-1.52706e-06
6.56187e-07
-1.56258e-07
2.63863e-07
6.56187e-07
-4.05468e-07
2.63863e-07
-9.00169e-08
-4.05468e-07
1.59571e-07
-9.00169e-08
6.71594e-08
1.59571e-07
-1.03092e-07
6.71594e-08
-3.06889e-08
-1.03092e-07
5.41396e-08
-3.06889e-08
1.78045e-08
5.41397e-08
-2.60269e-08
1.78045e-08
-1.00964e-08
-2.60269e-08
9.98362e-09
-1.00964e-08
-8.29894e-09
9.98362e-09
1.10542e-08
-5.12106e-05
8.81245e-06
9.43924e-05
-1.60184e-05
8.81245e-06
-7.5275e-06
-1.60184e-05
1.41012e-05
-7.5275e-06
3.39467e-06
1.41012e-05
-6.3461e-06
3.39468e-06
-1.52706e-06
-6.3461e-06
2.99279e-06
-1.52706e-06
6.56187e-07
2.99279e-06
-1.37588e-06
6.56187e-07
-4.05468e-07
-1.37588e-06
6.83034e-07
-4.05468e-07
1.59571e-07
6.83034e-07
-2.86758e-07
1.59571e-07
-1.03092e-07
-2.86758e-07
1.80265e-07
-1.03092e-07
5.41396e-08
1.80265e-07
-9.87571e-08
5.41396e-08
-2.60269e-08
-9.87571e-08
4.38308e-08
-2.60269e-08
9.98362e-09
4.38308e-08
-1.31468e-08
9.98361e-09
1.10542e-08
-1.31468e-08
-1.78748e-08
9.43924e-05
-1.60184e-05
-0.000187914
3.20776e-05
-1.60184e-05
1.41012e-05
3.20776e-05
-2.79598e-05
1.41012e-05
-6.3461e-06
-2.79598e-05
1.2681e-05
-6.3461e-06
2.99279e-06
1.2681e-05
-6.07953e-06
2.99279e-06
-1.37588e-06
-6.07953e-06
3.13946e-06
-1.37588e-06
6.83034e-07
3.13946e-06
-1.38262e-06
6.83034e-07
-2.86758e-07
-1.38262e-06
5.55947e-07
-2.86758e-07
1.80265e-07
5.55947e-07
-2.7943e-07
1.80265e-07
-9.87571e-08
-2.7943e-07
1.84509e-07
-9.87571e-08
4.38308e-08
1.84509e-07
-7.82514e-08
4.38308e-08
-1.31468e-08
-7.82514e-08
2.05121e-08
-1.31468e-08
-1.78748e-08
2.05121e-08
3.14609e-08
-0.000187914
3.20776e-05
0.000293404
-5.35674e-05
3.20776e-05
-2.79598e-05
-5.35674e-05
4.6343e-05
-2.79598e-05
1.2681e-05
4.6343e-05
-2.07619e-05
1.2681e-05
-6.07953e-06
-2.07619e-05
9.93275e-06
-6.07953e-06
3.13946e-06
9.93275e-06
-4.26902e-06
3.13946e-06
-1.38262e-06
-4.26902e-06
2.52569e-06
-1.38262e-06
5.55947e-07
2.52569e-06
-1.06227e-06
5.55947e-07
-2.7943e-07
-1.06227e-06
7.36251e-07
-2.7943e-07
1.84509e-07
7.36251e-07
-3.71459e-07
1.84509e-07
-7.82514e-08
-3.71459e-07
1.74751e-07
-7.82514e-08
2.05121e-08
1.74751e-07
-6.19123e-08
2.05121e-08
3.14609e-08
-6.19123e-08
-7.33323e-08
0.000293404
0.000112096
-0.000465229
-0.000342829
0.000112096
-5.35674e-05
-0.000342829
0.000122254
-5.35674e-05
-3.19351e-05
0.000122254
0.000180621
-3.19351e-05
4.6343e-05
0.000180621
-0.000144014
4.6343e-05
2.89547e-05
-0.000144014
-8.63447e-05
2.89547e-05
-2.07619e-05
-8.63447e-05
6.71832e-05
-2.07619e-05
-1.57926e-05
6.71832e-05
4.78866e-05
-1.57926e-05
9.93275e-06
4.78866e-05
-2.07946e-05
9.93275e-06
8.34149e-06
-2.07946e-05
-7.68419e-06
8.34149e-06
-4.26902e-06
-7.68419e-06
1.98268e-05
-4.26902e-06
2.52569e-06
1.98268e-05
-9.17852e-06
2.52569e-06
-1.06227e-06
-9.17852e-06
3.9517e-06
-1.06227e-06
7.36251e-07
3.95169e-06
-2.56971e-06
7.36251e-07
-3.71459e-07
-2.56971e-06
1.32694e-06
-3.71459e-07
1.74751e-07
1.32694e-06
-5.76599e-07
1.74751e-07
-6.19123e-08
-5.76599e-07
1.32412e-07
-6.19123e-08
-7.33323e-08
1.32412e-07
2.18782e-07
-0.000465229
-0.000342829
0.000803469
0.00016562
-0.000342829
0.000122254
0.00016562
-0.000116719
0.000122254
0.000180621
-0.000116719
2.60515e-05
0.000180621
-0.000144014
2.60515e-05
8.56576e-05
-0.000144014
-8.63447e-05
8.56576e-05
6.16823e-05
-8.63447e-05
6.71832e-05
6.16823e-05
-2.78055e-05
6.71832e-05
4.78865e-05
-2.78055e-05
-1.98253e-05
4.78865e-05
-2.07946e-05
-1.98253e-05
5.76131e-05
-2.07946e-05
-7.68418e-06
5.76131e-05
7.89235e-05
-7.68418e-06
1.98268e-05
7.89235e-05
1.35889e-05
1.98268e-05
-9.17852e-06
1.35889e-05
1.55672e-07
-9.17852e-06
3.9517e-06
1.55673e-07
-1.09832e-06
3.95169e-06
-2.56971e-06
-1.09832e-06
9.3863e-07
-2.56971e-06
1.32694e-06
9.38629e-07
-4.56486e-07
1.32694e-06
-5.76599e-07
-4.56487e-07
2.56677e-07
-5.766e-07
1.32412e-07
2.56676e-07
-1.45e-07
1.32412e-07
2.18782e-07
-1.45e-07
-1.17767e-07
0.00080347
0.00016562
0.00022815
1.31792e-05
0.00016562
-0.000116719
1.31792e-05
4.26453e-05
-0.000116719
2.60515e-05
4.26453e-05
0.000120034
2.60515e-05
8.56576e-05
0.000120034
-3.94738e-05
8.56576e-05
6.16823e-05
-3.94738e-05
-4.63802e-05
6.16823e-05
-2.78055e-05
-4.63802e-05
-7.89574e-06
-2.78055e-05
-1.98253e-05
-7.89573e-06
-1.91137e-05
-1.98253e-05
5.76131e-05
-1.91137e-05
-2.19252e-06
5.76131e-05
7.89235e-05
-2.19252e-06
5.40854e-06
7.89235e-05
1.35889e-05
5.40854e-06
-1.71407e-06
-8.23714e-05
0.00022815
0.00935719
0.00842609
0.00935719
0.00842609
0.0706739
0.0543842
0.000228149
1.31791e-05
0.00842609
0.0018741
1.31792e-05
4.26453e-05
0.0018741
0.000119943
0.0018741
0.000119943
0.0302305
0.00926727
0.00842609
0.0018741
0.0543842
0.0302305
4.26453e-05
0.000120034
0.000119943
0.00065025
0.000120034
-3.94738e-05
0.00065025
3.57579e-05
0.00065025
3.57579e-05
0.000199711
-8.81344e-05
0.000119943
0.00065025
0.00926727
0.000199711
-3.94738e-05
-4.63802e-05
3.57579e-05
-7.23808e-05
-4.63802e-05
-7.89574e-06
-7.23808e-05
-6.43279e-05
-7.23808e-05
-6.43279e-05
-0.000189432
-4.44335e-05
3.57579e-05
-7.23808e-05
-8.81344e-05
-0.000189432
-7.89574e-06
-1.91137e-05
-6.43278e-05
-0.00017775
-1.91137e-05
-2.19252e-06
-0.00017775
-2.5846e-06
-0.00017775
-2.5846e-06
-2.44626e-05
-2.08458e-05
-6.43279e-05
-0.00017775
-4.44335e-05
-2.44626e-05
0.0543843
0.0302305
0.303813
0.186111
0.0302305
0.00926727
0.186111
0.0657416
0.00926727
0.000199712
0.0657416
0.0129679
0.000199712
-8.81344e-05
0.0129679
0.00082031
0.0129679
0.00082031
0.0433257
0.00524257
0.0657416
0.0129679
0.265574
0.0433257
-8.81344e-05
-0.000189432
0.00082031
0.00016842
-0.000189432
-4.44335e-05
0.00016842
-6.50068e-05
0.00016842
-6.50069e-05
-0.00254613
0.00110976
0.00082031
0.00016842
0.00524257
-0.00254613
-4.44335e-05
-2.44626e-05
-6.50069e-05
-9.26818e-05
0.00524257
-0.00254613
0.0163108
0.00108445
1.35889e-05
-1.02036e-05
-1.71407e-06
1.05371e-05
-1.02036e-05
1.55673e-07
1.05371e-05
-5.70334e-06
1.55671e-07
-1.09832e-06
-5.70334e-06
-7.44307e-07
-1.09832e-06
9.38629e-07
-7.44307e-07
-3.96704e-06
9.38629e-07
-4.56486e-07
-3.96704e-06
1.22586e-06
-4.56486e-07
2.56676e-07
1.22586e-06
-6.93561e-07
2.56676e-07
-1.45e-07
-6.93561e-07
3.12325e-07
-1.45e-07
-1.17767e-07
3.12325e-07
3.93584e-07
-1.71407e-06
1.05371e-05
1.87435e-05
3.38708e-05
1.05371e-05
-5.70334e-06
3.38708e-05
3.62858e-05
-5.70334e-06
-8.32959e-06
3.62858e-05
1.42462e-05
-8.32959e-06
-7.44307e-07
1.42462e-05
8.56856e-06
-7.44307e-07
-3.96704e-06
8.56856e-06
-3.51313e-07
-3.96704e-06
1.22586e-06
-3.51314e-07
6.09178e-07
1.22586e-06
-6.93561e-07
6.09178e-07
-3.58024e-07
-6.93561e-07
3.12325e-07
-3.58024e-07
2.41812e-07
3.12325e-07
3.93584e-07
2.41812e-07
2.44229e-07
3.62858e-05
1.42462e-05
4.19526e-05
1.95777e-05
1.42462e-05
8.56856e-06
1.95777e-05
1.29974e-05
8.56856e-06
-3.51313e-07
1.29974e-05
-3.27485e-06
-3.51313e-07
6.09178e-07
-3.27485e-06
1.6298e-06
6.09178e-07
-3.58024e-07
1.6298e-06
-1.07523e-06
-3.58024e-07
2.41812e-07
-1.07523e-06
7.5913e-07
2.41812e-07
2.44229e-07
7.59131e-07
5.31467e-07
1.29974e-05
-3.27485e-06
-5.37568e-05
-7.31683e-06
-3.27485e-06
1.6298e-06
-7.31683e-06
9.37828e-07
1.6298e-06
-1.07523e-06
9.37828e-07
2.84725e-07
-1.07523e-06
7.59131e-07
2.84725e-07
-1.37903e-06
7.5913e-07
5.31467e-07
-1.37903e-06
-5.85724e-07
-5.37568e-05
-7.31683e-06
7.58126e-05
1.55901e-05
-7.31683e-06
9.37828e-07
1.55901e-05
-3.71874e-06
9.37828e-07
2.84725e-07
-3.71874e-06
4.27919e-07
2.84725e-07
-1.37903e-06
4.27919e-07
2.55817e-06
-1.37903e-06
-5.85724e-07
2.55817e-06
5.37813e-07
7.58126e-05
1.55901e-05
-0.00012197
-2.85433e-05
1.55901e-05
-3.71874e-06
-2.85433e-05
1.19899e-05
-3.71874e-06
4.27919e-07
1.19899e-05
-3.55575e-06
4.27919e-07
2.55817e-06
-3.55575e-06
-2.53573e-06
2.55817e-06
5.37813e-07
-2.53573e-06
-2.92343e-07
-0.00012197
-2.85433e-05
0.00061058
9.31091e-06
-2.85433e-05
1.19899e-05
9.31091e-06
3.1562e-05
1.19899e-05
-3.55575e-06
3.1562e-05
-8.76816e-06
-3.55575e-06
-2.53573e-06
-8.76816e-06
-5.32902e-06
-2.53573e-06
-2.92343e-07
-5.32902e-06
3.23239e-06
0.00061058
9.31091e-06
0.000790905
6.97066e-05
9.31092e-06
3.1562e-05
6.97066e-05
1.05519e-05
3.1562e-05
-8.76816e-06
1.05519e-05