# vtk DataFile Version 2.0
Hex test
ASCII
DATASET UNSTRUCTURED_GRID
POINTS 10204 float
-8 22 0
-8 24 0
-6 22 0
-6 24 0
-8 24 0
-8 26 0
-6 24 0
-6 26 0
-6 20 0
-6 22 0
-4 20 0
-4 22 0
-6 22 0
-6 24 0
-4 22 0
-4 24 0
-6 24 0
-6 26 0
-4 24 0
-4 26 0
-6 26 0
-6 28 0
-4 26 0
-4 28 0
-4 18 0
-4 19 0
-2 18 0
-2 19 0
-4 19 0
-4 20 0
-2 19 0
-2 20 0
-4 20 0
-4 22 0
-2 20 0
-2 22 0
-4 22 0
-4 24 0
-2 22 0
-2 24 0
-4 24 0
-4 26 0
-2 24 0
-2 26 0
-4 26 0
-4 28 0
-2 26 0
-2 28 0
-4 28 0
-4 30 0
-2 28 0
-2 30 0
-2 18 0
-2 19 0
-2.08167e-17 18 0
5.55112e-17 19 0
-2 19 0
-2 20 0
5.55112e-17 19 0
-8.32667e-17 20 0
-2 20 0
-2 22 0
-8.32667e-17 20 0
-6.93889e-17 22 0
-2 22 0
-2 24 0
-4.16334e-17 22 0
-5.55112e-17 24 0
-2 24 0
-2 26 0
-2.77556e-17 24 0
-6.93889e-17 26 0
-2 26 0
-2 28 0
-8.32667e-17 26 0
-5.55112e-17 28 0
-2 28 0
-2 29 0
-6.245e-17 28 0
6.245e-17 29 0
-2 29 0
-2 30 0
6.245e-17 29 0
-5.55112e-17 30 0
-2 30 0
-2 31 0
-2.77556e-17 30 0
8.32667e-17 31 0
-2 31 0
-2 32 0
8.32667e-17 31 0
-5.55112e-17 32 0
0 20 0
-6.93889e-18 21 0
2 20 0
2 21 0
-6.93889e-18 21 0
-2.77556e-17 22 0
2 21 0
2 22 0
-4.16334e-17 22 0
2.94903e-17 23 0
2 22 0
2 23 0
2.94903e-17 23 0
2.77556e-17 24 0
2 23 0
2 24 0
2.77556e-17 24 0
2.94903e-17 25 0
2 24 0
2 25 0
2.94903e-17 25 0
-4.16334e-17 26 0
2 25 0
2 26 0
-2.77556e-17 26 0
-6.93889e-18 27 0
2 26 0
2 27 0
-6.93889e-18 27 0
0 28 0
2 27 0
2 28 0
-6.93889e-18 28 0
3.1225e-17 29 0
2 28 0
2 29 0
3.1225e-17 29 0
2.77556e-17 30 0
2 29 0
2 30 0
2.77556e-17 30 0
8.67362e-17 31 0
2 30 0
2 31 0
8.67362e-17 31 0
2.77556e-17 32 0
2 31 0
2 32 0
2 20 0
2 21 0
4 20 0
4 21 0
2 21 0
2 22 0
4 21 0
4 22 0
2 22 0
2 23 0
4 22 0
4 23 0
2 23 0
2 24 0
4 23 0
4 24 0
2 24 0
2 25 0
4 24 0
4 25 0
2 25 0
2 26 0
4 25 0
4 26 0
2 26 0
2 27 0
4 26 0
4 27 0
2 27 0
2 28 0
4 27 0
4 28 0
12 21 0
12 22 0
14 21 0
14 22 0
3.46945e-17 17 0
2.77556e-17 18 0
2 17 0
2 18 0
3.46945e-17 18 0
1.04083e-17 19 0
2 18 0
2 19 0
-2.08167e-17 19 0
-6.93889e-18 20 0
2 19 0
2 20 0
10 24 0
10 25 0
11 24 0
11 25 0
10 22 0
10 23 0
11 22 0
11 23 0
10 23 0
10 24 0
11 23 0
11 24 0
11 22 0
11 23 0
12 22 0
12 23 0
10 20 0
10 21 0
11 20 0
11 21 0
10 21 0
10 22 0
11 21 0
11 22 0
11 21 0
11 22 0
12 21 0
12 22 0
11 20 0
11 21 0
12 20 0
12 21 0
10 18 0
10 19 0
11 18 0
11 19 0
10 19 0
10 20 0
11 19 0
11 20 0
11 19 0
11 20 0
12 19 0
12 20 0
8 28 0
8 29 0
9 28 0
9 29 0
8 26 0
8 27 0
9 26 0
9 27 0
8 27 0
8 28 0
9 27 0
9 28 0
9 26 0
9 27 0
10 26 0
10 27 0
8 24 0
8 25 0
9 24 0
9 25 0
8 25 0
8 26 0
9 25 0
9 26 0
9 25 0
9 26 0
10 25 0
10 26 0
9 24 0
9 25 0
10 24 0
10 25 0
8 22 0
8 23 0
9 22 0
9 23 0
8 23 0
8 24 0
9 23 0
9 24 0
9 23 0
9 24 0
10 23 0
10 24 0
9 22 0
9 23 0
10 22 0
10 23 0
8 20 0
8 21 0
9 20 0
9 21 0
8 21 0
8 22 0
9 21 0
9 22 0
9 21 0
9 22 0
10 21 0
10 22 0
9 20 0
9 21 0
10 20 0
10 21 0
8 18 0
8 19 0
9 18 0
9 19 0
8 19 0
8 20 0
9 19 0
9 20 0
9 19 0
9 20 0
10 19 0
10 20 0
9 18 0
9 19 0
10 18 0
10 19 0
8 16 0
8 17 0
9 16 0
9 17 0
8 17 0
8 18 0
9 17 0
9 18 0
9 17 0
9 18 0
10 17 0
10 18 0
8 15 0
8 16 0
9 15 0
9 16 0
2 16 0
2 17 0
3 16 0
3 17 0
2 17 0
2 18 0
3 17 0
3 18 0
3 17 0
3 18 0
4 17 0
4 18 0
3 16 0
3 17 0
4 16 0
4 17 0
2 18 0
2 19 0
3 18 0
3 19 0
3 18 0
3 19 0
4 18 0
4 19 0
2 19 0
2 20 0
3 19 0
3 20 0
3 19 0
3 20 0
4 19 0
4 20 0
2 28 0
2 29 0
4 28 0
4 29 0
2 29 0
2 30 0
4 29 0
4 30 0
2 30 0
2 31 0
4 30 0
4 31 0
2 31 0
2 32 0
4 31 0
4 32 0
2 32 0
2 33 0
4 32 0
4 33 0
6 30 0
6 31 0
7 30 0
7 31 0
6 31 0
6 32 0
7 31 0
7 32 0
7 30 0
7 31 0
8 30 0
8 31 0
6 28 0
6 29 0
7 28 0
7 29 0
6 29 0
6 30 0
7 29 0
7 30 0
7 29 0
7 30 0
8 29 0
8 30 0
7 28 0
7 29 0
8 28 0
8 29 0
6 26 0
6 27 0
7 26 0
7 27 0
6 27 0
6 28 0
7 27 0
7 28 0
7 27 0
7 28 0
8 27 0
8 28 0
7 26 0
7 27 0
8 26 0
8 27 0
6 24 0
6 25 0
7 24 0
7 25 0
6 25 0
6 26 0
7 25 0
7 26 0
7 25 0
7 26 0
8 25 0
8 26 0
7 24 0
7 25 0
8 24 0
8 25 0
6 22 0
6 23 0
7 22 0
7 23 0
6 23 0
6 24 0
7 23 0
7 24 0
7 23 0
7 24 0
8 23 0
8 24 0
7 22 0
7 23 0
8 22 0
8 23 0
6 20 0
6 21 0
7 20 0
7 21 0
6 21 0
6 22 0
7 21 0
7 22 0
7 21 0
7 22 0
8 21 0
8 22 0
7 20 0
7 21 0
8 20 0
8 21 0
6 18 0
6 19 0
7 18 0
7 19 0
6 19 0
6 20 0
7 19 0
7 20 0
7 19 0
7 20 0
8 19 0
8 20 0
7 18 0
7 19 0
8 18 0
8 19 0
6 16 0
6 17 0
7 16 0
7 17 0
6 17 0
6 18 0
7 17 0
7 18 0
7 17 0
7 18 0
8 17 0
8 18 0
7 16 0
7 17 0
8 16 0
8 17 0
6 14 0
6 15 0
7 14 0
7 15 0
6 15 0
6 16 0
7 15 0
7 16 0
7 15 0
7 16 0
8 15 0
8 16 0
7 14 0
7 15 0
8 14 0
8 15 0
4 15 0
4 16 0
5 15 0
5 16 0
5 15 0
5 16 0
6 15 0
6 16 0
5 14 0
5 15 0
6 14 0
6 15 0
4 16 0
4 17 0
5 16 0
5 17 0
4 17 0
4 18 0
5 17 0
5 18 0
5 17 0
5 18 0
6 17 0
6 18 0
5 16 0
5 17 0
6 16 0
6 17 0
4 18 0
4 19 0
5 18 0
5 19 0
5 18 0
5 19 0
6 18 0
6 19 0
4 19 0
4 20 0
5 19 0
5 20 0
5 19 0
5 20 0
6 19 0
6 20 0
4 20 0
4 21 0
6 20 0
6 21 0
4 21 0
4 22 0
6 21 0
6 22 0
4 22 0
4 23 0
6 22 0
6 23 0
4 23 0
4 24 0
6 23 0
6 24 0
4 24 0
4 25 0
6 24 0
6 25 0
4 25 0
4 26 0
6 25 0
6 26 0
4 26 0
4 27 0
6 26 0
6 27 0
4 27 0
4 28 0
6 27 0
6 28 0
4 28 0
4 29 0
5 28 0
5 29 0
5 28 0
5 29 0
6 28 0
6 29 0
4 29 0
4 30 0
5 29 0
5 30 0
5 29 0
5 30 0
6 29 0
6 30 0
4 30 0
4 31 0
5 30 0
5 31 0
4 31 0
4 32 0
5 31 0
5 32 0
5 31 0
5 32 0
6 31 0
6 32 0
5 30 0
5 31 0
6 30 0
6 31 0
4 32 0
4 33 0
5 32 0
5 33 0
5 33 0
5 34 0
6 33 0
6 34 0
5 32 0
5 33 0
6 32 0
6 33 0
7 13 0
7 14 0
8 13 0
8 14 0
14 20 0
14 21 0
16 20 0
16 21 0
14 21 0
14 22 0
16 21 0
16 22 0
14 22 0
14 23 0
16 22 0
16 23 0
14 23 0
14 24 0
16 23 0
16 24 0
14 24 0
14 25 0
16 24 0
16 25 0
14 25 0
14 26 0
16 25 0
16 26 0
14 26 0
14 27 0
16 26 0
16 27 0
14 27 0
14 28 0
16 27 0
16 28 0
14 28 0
14 29 0
16 28 0
16 29 0
14 29 0
14 30 0
16 29 0
16 30 0
14 30 0
14 31 0
16 30 0
16 31 0
14 31 0
14 32 0
16 31 0
16 32 0
14 32 0
14 33 0
16 32 0
16 33 0
14 33 0
14 34 0
16 33 0
16 34 0
16 20 0
16 21 0
18 20 0
18 21 0
16 21 0
16 22 0
18 21 0
18 22 0
16 22 0
16 23 0
18 22 0
18 23 0
16 23 0
16 24 0
18 23 0
18 24 0
16 24 0
16 25 0
18 24 0
18 25 0
16 25 0
16 26 0
18 25 0
18 26 0
16 26 0
16 27 0
18 26 0
18 27 0
16 27 0
16 28 0
18 27 0
18 28 0
16 28 0
16 29 0
18 28 0
18 29 0
16 29 0
16 30 0
18 29 0
18 30 0
16 30 0
16 31 0
18 30 0
18 31 0
16 31 0
16 32 0
18 31 0
18 32 0
16 32 0
16 33 0
18 32 0
18 33 0
16 33 0
16 34 0
18 33 0
18 34 0
16 34 0
16 35 0
18 34 0
18 35 0
16 35 0
16 36 0
18 35 0
18 36 0
18 20 0
18 22 0
20 20 0
20 22 0
18 22 0
18 24 0
20 22 0
20 24 0
18 24 0
18 26 0
20 24 0
20 26 0
18 26 0
18 28 0
20 26 0
20 28 0
18 28 0
18 30 0
20 28 0
20 30 0
18 30 0
18 32 0
20 30 0
20 32 0
18 32 0
18 34 0
20 32 0
20 34 0
18 34 0
18 35 0
20 34 0
20 35 0
18 35 0
18 36 0
20 35 0
20 36 0
20 20 0
20 22 0
22 20 0
22 22 0
20 22 0
20 24 0
22 22 0
22 24 0
20 24 0
20 26 0
22 24 0
22 26 0
20 26 0
20 28 0
22 26 0
22 28 0
20 28 0
20 30 0
22 28 0
22 30 0
20 30 0
20 32 0
22 30 0
22 32 0
20 32 0
20 34 0
22 32 0
22 34 0
20 34 0
20 36 0
22 34 0
22 36 0
22 22 0
22 24 0
24 22 0
24 24 0
22 24 0
22 26 0
24 24 0
24 26 0
22 26 0
22 28 0
24 26 0
24 28 0
22 28 0
22 30 0
24 28 0
24 30 0
22 30 0
22 32 0
24 30 0
24 32 0
22 32 0
22 34 0
24 32 0
24 34 0
22 34 0
22 36 0
24 34 0
24 36 0
22 36 0
22 37 0
23 36 0
23 37 0
23 36 0
23 37 0
24 36 0
24 37 0
22 37 0
22 38 0
23 37 0
23 38 0
23 37 0
23 38 0
24 37 0
24 38 0
20 38 0
20 39 0
21 38 0
21 39 0
21 38 0
21 39 0
22 38 0
22 39 0
20 36 0
20 37 0
21 36 0
21 37 0
21 36 0
21 37 0
22 36 0
22 37 0
20 37 0
20 38 0
21 37 0
21 38 0
21 37 0
21 38 0
22 37 0
22 38 0
18 38 0
18 39 0
19 38 0
19 39 0
18 39 0
18 40 0
19 39 0
19 40 0
19 38 0
19 39 0
20 38 0
20 39 0
18 36 0
18 37 0
19 36 0
19 37 0
19 36 0
19 37 0
20 36 0
20 37 0
18 37 0
18 38 0
19 37 0
19 38 0
19 37 0
19 38 0
20 37 0
20 38 0
16 38 0
16 39 0
17 38 0
17 39 0
16 39 0
16 40 0
17 39 0
17 40 0
17 38 0
17 39 0
18 38 0
18 39 0
16 36 0
16 37 0
17 36 0
17 37 0
17 36 0
17 37 0
18 36 0
18 37 0
16 37 0
16 38 0
17 37 0
17 38 0
17 37 0
17 38 0
18 37 0
18 38 0
14 38 0
14 39 0
15 38 0
15 39 0
14 39 0
14 40 0
15 39 0
15 40 0
15 39 0
15 40 0
16 39 0
16 40 0
15 38 0
15 39 0
16 38 0
16 39 0
14 36 0
14 37 0
15 36 0
15 37 0
15 36 0
15 37 0
16 36 0
16 37 0
14 37 0
14 38 0
15 37 0
15 38 0
15 37 0
15 38 0
16 37 0
16 38 0
14 34 0
14 35 0
16 34 0
16 35 0
14 35 0
14 36 0
16 35 0
16 36 0
12 38 0
12 39 0
13 38 0
13 39 0
13 39 0
13 40 0
14 39 0
14 40 0
13 38 0
13 39 0
14 38 0
14 39 0
12 36 0
12 37 0
13 36 0
13 37 0
12 37 0
12 38 0
13 37 0
13 38 0
13 37 0
13 38 0
14 37 0
14 38 0
13 36 0
13 37 0
14 36 0
14 37 0
12 34 0
12 35 0
13 34 0
13 35 0
13 34 0
13 35 0
14 34 0
14 35 0
12 35 0
12 36 0
13 35 0
13 36 0
13 35 0
13 36 0
14 35 0
14 36 0
12 32 0
12 33 0
14 32 0
14 33 0
12 33 0
12 34 0
14 33 0
14 34 0
12 30 0
12 31 0
14 30 0
14 31 0
12 31 0
12 32 0
14 31 0
14 32 0
12 28 0
12 29 0
14 28 0
14 29 0
12 29 0
12 30 0
14 29 0
14 30 0
12 26 0
12 27 0
14 26 0
14 27 0
12 27 0
12 28 0
14 27 0
14 28 0
12 24 0
12 25 0
14 24 0
14 25 0
12 25 0
12 26 0
14 25 0
14 26 0
12 22 0
12 23 0
14 22 0
14 23 0
12 23 0
12 24 0
14 23 0
14 24 0
12 20 0
12 21 0
14 20 0
14 21 0
10 36 0
10 37 0
11 36 0
11 37 0
10 37 0
10 38 0
11 37 0
11 38 0
11 37 0
11 38 0
12 37 0
12 38 0
11 36 0
11 37 0
12 36 0
12 37 0
10 34 0
10 35 0
11 34 0
11 35 0
10 35 0
10 36 0
11 35 0
11 36 0
11 35 0
11 36 0
12 35 0
12 36 0
11 34 0
11 35 0
12 34 0
12 35 0
10 32 0
10 33 0
11 32 0
11 33 0
10 33 0
10 34 0
11 33 0
11 34 0
11 33 0
11 34 0
12 33 0
12 34 0
11 32 0
11 33 0
12 32 0
12 33 0
10 30 0
10 31 0
11 30 0
11 31 0
10 31 0
10 32 0
11 31 0
11 32 0
11 31 0
11 32 0
12 31 0
12 32 0
11 30 0
11 31 0
12 30 0
12 31 0
10 28 0
10 29 0
11 28 0
11 29 0
10 29 0
10 30 0
11 29 0
11 30 0
11 29 0
11 30 0
12 29 0
12 30 0
11 28 0
11 29 0
12 28 0
12 29 0
10 26 0
10 27 0
11 26 0
11 27 0
10 27 0
10 28 0
11 27 0
11 28 0
11 27 0
11 28 0
12 27 0
12 28 0
11 26 0
11 27 0
12 26 0
12 27 0
10 25 0
10 26 0
11 25 0
11 26 0
11 25 0
11 26 0
12 25 0
12 26 0
11 24 0
11 25 0
12 24 0
12 25 0
11 23 0
11 24 0
12 23 0
12 24 0
9 36 0
9 37 0
10 36 0
10 37 0
8 34 0
8 35 0
9 34 0
9 35 0
8 35 0
8 36 0
9 35 0
9 36 0
9 35 0
9 36 0
10 35 0
10 36 0
9 34 0
9 35 0
10 34 0
10 35 0
8 32 0
8 33 0
9 32 0
9 33 0
8 33 0
8 34 0
9 33 0
9 34 0
9 33 0
9 34 0
10 33 0
10 34 0
9 32 0
9 33 0
10 32 0
10 33 0
8 30 0
8 31 0
9 30 0
[...]
POINT_DATA 10204
SCALARS phi float 1
LOOKUP_TABLE default
7.76423e-05
5.10759e-05
-9.16979e-05
-6.03943e-05
5.10759e-05
6.59996e-05
-6.03943e-05
-7.8469e-05
-5.85313e-05
-9.16979e-05
0.000111087
0.000167274
-9.16979e-05
-6.03943e-05
0.000167274
0.000109597
-6.03943e-05
-7.8469e-05
0.000109597
0.000141661
-7.8469e-05
-7.45642e-05
0.000141661
0.000140858
8.45835e-05
0.000103084
-8.03898e-05
-0.000154118
0.000103084
0.000111087
-0.000154118
-0.000196596
0.000111087
0.000167274
-0.000196596
-0.000324717
0.000167274
0.000109597
-0.000324717
-0.000198453
0.000109597
0.000141661
-0.000198453
-0.000266709
0.000141661
0.000140858
-0.000266709
-0.000267296
0.000140858
4.05984e-05
-0.000267296
-8.43929e-05
-8.03899e-05
-0.000154118
0.000585625
0.0005465
-0.000154118
-0.000196596
0.0005465
0.000401341
-0.000196596
-0.000324717
0.000401341
0.000578249
-0.000324717
-0.000198453
0.000578249
0.000384453
-0.000198453
-0.000266709
0.000384453
0.000519382
-0.000266709
-0.000267296
0.000519382
0.000473096
-0.000267296
-0.000198071
0.000473096
0.000439414
-0.000198071
-8.43929e-05
0.000439414
0.000318281
-8.43929e-05
4.17484e-05
0.000318281
-0.000284395
4.17484e-05
3.32865e-05
-0.000284395
-0.000163485
0.000401341
0.000468477
-0.000739839
-0.000753994
0.000468477
0.000578249
-0.000753994
-0.00107746
0.000578249
0.000496824
-0.00107746
-0.00096296
0.000496824
0.000384453
-0.00096296
-0.000720806
0.000384453
0.000427098
-0.000720806
-0.000751444
0.000427098
0.000519382
-0.000751444
-0.00098487
0.000519382
0.000524732
-0.000984869
-0.000938944
0.000524732
0.000473096
-0.000938944
-0.000925764
0.000473096
0.000439414
-0.000925764
-0.000455292
0.000439414
0.000318281
-0.000455292
0.000176327
0.000318281
-0.000284395
0.000176327
-0.000247487
-0.000284395
-0.000163485
-0.000247487
-5.16159e-06
-0.000739839
-0.000753994
0.00121727
0.00171253
-0.000753994
-0.00107746
0.00171253
0.00164124
-0.00107746
-0.00096296
0.00164124
0.00141209
-0.00096296
-0.000720807
0.00141209
0.00126497
-0.000720806
-0.000751444
0.00126497
0.00126328
-0.000751444
-0.00098487
0.00126328
0.00137844
-0.00098487
-0.000938944
0.00137844
0.00168474
-0.000938944
-0.000925764
0.00168474
0.00156556
0.999111
0.998514
0.999153
0.998726
0.000492315
0.000585625
0.000530479
0.000421509
0.000585625
0.0005465
0.000421509
-0.000475311
0.0005465
0.000401341
-0.000475311
-0.000739839
0.93252
0.928462
0.990687
0.990664
0.949378
0.934322
0.991455
0.990856
0.934322
0.93252
0.990856
0.990687
0.991455
0.990856
0.998514
0.998359
0.987194
0.976611
0.998642
0.994522
0.976611
0.949378
0.994522
0.991455
0.994522
0.991455
0.999111
0.998514
0.998642
0.994522
0.999784
0.999111
0.981092
0.988673
0.996517
0.99954
0.988673
0.987194
0.99954
0.998642
0.99954
0.998642
1.00023
0.999784
0.109631
0.130211
0.715822
0.754686
0.0246243
0.0501751
0.389457
0.526012
0.0501751
0.109631
0.526012
0.715822
0.389457
0.526012
0.930981
0.959995
0.0245221
0.0224624
0.389125
0.380836
0.0224624
0.0246243
0.380836
0.389457
0.380836
0.389457
0.928462
0.930981
0.389125
0.380836
0.93252
0.928462
0.0378508
0.0256988
0.464463
0.401227
0.0256988
0.0245221
0.401227
0.389125
0.401227
0.389125
0.934322
0.93252
0.464463
0.401227
0.949378
0.934322
0.1369
0.0778476
0.762192
0.631882
0.0778476
0.0378508
0.631882
0.464463
0.631882
0.464463
0.976611
0.949378
0.762192
0.631882
0.987194
0.976611
0.105406
0.160367
0.694107
0.798484
0.160367
0.1369
0.798484
0.762192
0.798484
0.762192
0.988673
0.987194
0.694107
0.798484
0.981092
0.988673
0.0187874
0.0365031
0.174682
0.434311
0.0365031
0.105406
0.434311
0.694107
0.434311
0.694107
0.927142
0.981092
0.00799964
0.0187874
0.053875
0.174682
0.000107236
0.000530479
-6.69711e-05
0.00250344
0.000530479
0.000421508
0.00250344
0.0029012
0.00250344
0.0029012
0.00073141
0.000930315
-6.69711e-05
0.00250344
-2.53166e-05
0.00073141
0.000421508
-0.000475311
0.0029012
0.00109525
0.0029012
0.00109525
0.000930315
0.000777923
-0.000475311
-0.000739839
0.00109525
0.00122985
0.00109525
0.00122985
0.000777923
0.00121727
-0.000925764
-0.000455292
0.00156556
0.000827093
-0.000455292
0.000176327
0.000827093
-0.000284975
0.000176327
-0.000247488
-0.000284975
-0.000141248
-0.000247488
-5.16156e-06
-0.000141248
-0.000246966
-5.16158e-06
0.000787806
-0.000246966
9.84525e-05
-0.00673667
-0.00408446
0.00899451
0.00652109
-0.00408446
-0.00262746
0.00652109
0.000464709
0.00899451
0.00652109
0.0593267
0.0306032
0.00107912
-0.00119801
0.00932201
0.00994194
-0.00119801
-0.00673667
0.00994194
0.00899451
0.00994194
0.00899451
0.130211
0.0593267
0.00932201
0.00994194
0.109631
0.130211
0.000738289
0.00117464
0.00589394
0.0084755
0.00117464
0.00107912
0.0084755
0.00932201
0.0084755
0.00932201
0.0501751
0.109631
0.00589394
0.0084755
0.0246243
0.0501751
0.000815614
0.000779178
0.00590249
0.00579043
0.000779179
0.000738289
0.00579043
0.00589394
0.00579043
0.00589394
0.0224624
0.0246243
0.00590249
0.00579043
0.0245221
0.0224624
0.000962026
0.000756443
0.00736668
0.00615769
0.000756443
0.000815614
0.00615769
0.00590249
0.00615769
0.00590249
0.0256988
0.0245221
0.00736668
0.00615769
0.0378508
0.0256988
0.00107994
0.00123993
0.00987004
0.00936363
0.00123993
0.000962026
0.00936363
0.00736668
0.00936363
0.00736668
0.0778476
0.0378508
0.00987004
0.00936363
0.1369
0.0778476
-0.00583167
-0.00121216
0.0108439
0.00983897
-0.00121216
0.00107994
0.00983897
0.00987004
0.00983897
0.00987004
0.160367
0.1369
0.0108439
0.00983897
0.105406
0.160367
0.00144902
-0.00705271
0.00143208
0.00587932
-0.00705271
-0.00583167
0.00587932
0.0108439
0.00587931
0.0108439
0.0365031
0.105406
0.00143208
0.00587932
0.0187874
0.0365031
0.0054393
-0.00223918
0.00535077
-0.00562055
-0.00223918
0.00144902
-0.00562055
0.00143208
-0.00562055
0.00143208
0.00799964
0.0187874
0.00535077
-0.00562055
0.0157133
0.00799964
0.000332382
-2.53166e-05
-0.000766639
-0.000975102
-0.000766639
-0.000975102
-0.00223918
0.00144902
-0.000646913
-0.000766639
0.0054393
-0.00223918
-2.53166e-05
0.00073141
-0.000975102
-0.00513001
0.00073141
0.000930315
-0.00513001
-0.00507548
-0.00513001
-0.00507548
-0.0070527
-0.00583167
-0.000975102
-0.00513001
0.00144902
-0.00705271
0.000930315
0.000777923
-0.00507548
-0.00262976
-0.00507548
-0.00262976
-0.00583167
-0.00121216
0.000777923
0.00121727
-0.00262976
-0.00276424
-0.00262976
-0.00276424
-0.00121216
0.00107994
0.00121727
0.00171253
0.00107994
0.00123992
0.00171253
0.00164124
0.00123993
0.000962026
0.00164124
0.00141209
0.000962025
0.000756443
0.00141209
0.00126497
0.000756444
0.000815615
0.00126497
0.00126328
0.000815615
0.000779178
0.00126328
0.00137844
0.000779178
0.000738289
0.00137844
0.00168474
0.000738289
0.00117464
0.00168474
0.00156556
0.00117464
0.00107912
0.00156556
0.000827093
-0.00372403
-0.00358069
-0.00372403
-0.00358069
0.00107912
-0.00119801
0.000827093
-0.000284975
-0.00358069
-0.0048992
-0.00358069
-0.0048992
-0.00119801
-0.00673667
-0.000284975
-0.000141248
-0.0048992
-0.00354207
-0.000141248
-0.000246966
-0.00354207
-0.00285781
-0.00354207
-0.00285781
-0.00408445
-0.00262746
-0.0048992
-0.00354207
-0.00673667
-0.00408446
-0.000246966
9.84525e-05
-0.00285781
-0.000978978
-0.000978978
-0.00288756
0.00100505
0.0240743
-0.00285781
-0.000978978
-0.00262746
0.00100505
0.0315284
0.00535077
0.0545882
0.0157133
0.9999
0.999153
0.999913
1.00023
0.999153
0.998726
1.00023
1.00084
0.998726
0.998741
1.00084
1.00089
0.998741
0.998885
1.00089
1.00068
0.998885
0.998749
1.00068
1.00087
0.998749
0.99865
1.00087
1.00089
0.99865
0.998817
1.00089
1.00033
0.998817
0.99953
1.00033
1.00018
0.999529
0.999648
1.00018
1.00038
0.999648
0.99896
1.00038
1.00037
0.99896
0.998294
1.00037
1.00083
0.998294
0.998102
1.00083
1.00006
0.998102
1.00027
1.00006
0.998742
1.00027
1.00178
0.998742
0.999238
0.999913
1.00023
1.00008
0.99986
1.00023
1.00084
0.99986
0.999523
1.00084
1.00089
0.999523
0.999471
1.00089
1.00068
0.999471
0.999564
1.00068
1.00087
0.999564
0.999586
1.00087
1.00089
0.999586
0.99957
1.00089
1.00033
0.99957
0.999608
1.00033
1.00018
0.999608
0.999787
1.00018
1.00038
0.999787
1.00008
1.00038
1.00037
1.00008
0.999969
1.00037
1.00083
0.999969
0.999218
1.00083
1.00006
0.999218
0.999081
1.00006
0.998741
0.999081
1.0003
0.998741
0.999238
1.0003
1.00007
0.999238
1.00226
1.00007
0.996939
1.00226
0.994289
0.996939
0.999505
1.00008
0.999523
0.999975
1.00018
0.999523
0.999564
1.00018
1.00021
0.999564
0.99957
1.00021
1.00017
0.99957
0.999787
1.00017
1.00009
0.999787
0.999969
1.00009
0.999944
0.999969
0.999081
0.999944
1.00037
0.999081
1.00007
1.00037
0.999661
1.00007
0.996939
0.999661
1.00206
0.996939
0.999505
1.00206
0.999632
0.999975
1.00018
1
0.999999
1.00018
1.00021
0.999999
1.00005
1.00021
1.00017
1.00005
0.99981
1.00017
1.00009
0.99981
1.00041
1.00009
0.999944
1.00041
0.99942
0.999944
1.00037
0.99942
1.00094
1.00037
0.999661
1.00094
0.997873
0.999661
0.999632
0.997873
0.998457
0.999999
1.00005
0.999824
0.999895
1.00005
0.99981
0.999895
0.999715
0.99981
1.00041
0.999715
1.00006
1.00041
0.99942
1.00006
0.999314
0.99942
1.00094
0.999314
1.00086
1.00094
0.997873
1.00086
0.999074
0.997873
0.998457
0.999074
0.999044
0.998457
0.989081
0.998635
0.989836
0.998635
0.989836
0.999044
0.992388
0.989081
0.927502
0.989836
0.934012
0.989836
0.934012
0.992388
0.95965
0.980462
0.696492
0.951966
0.48386
0.951966
0.48386
0.927502
0.370573
0.999632
0.995772
0.998948
0.992235
0.998948
0.992235
0.998457
0.989081
0.995772
0.980462
0.992235
0.951966
0.992235
0.951966
0.989081
0.927502
0.982328
0.895197
0.985421
0.865474
0.895197
0.339706
0.865474
0.256627
0.985421
0.865474
0.980462
0.696492
0.999505
1.00376
0.999895
1.00088
0.999895
1.00088
0.999632
0.995772
1.00376
0.982328
1.00088
0.985421
1.00088
0.985421
0.995772
0.980462
0.845322
0.471863
0.9646
0.795027
0.471863
0.0985181
0.795027
0.24325
0.9646
0.795027
0.982328
0.895197
0.99429
0.970085
0.998081
0.991978
0.998081
0.991978
0.999505
1.00376
0.970085
0.845322
0.991978
0.9646
0.991978
0.9646
1.00376
0.982328
0.220583
0.0428377
0.522356
0.140632
0.0428377
0.00585213
0.140632
0.0321257
0.140632
0.0321257
0.471863
0.0985181
0.522356
0.140632
0.845322
0.471863
0.954787
0.721356
0.984241
0.898368
0.984241
0.898368
0.99429
0.970085
0.721356
0.220583
0.898368
0.522356
0.898368
0.522356
0.970085
0.845322
1.00178
0.99107
0.999238
1.00226
0.99107
0.954787
1.00226
0.99429
0.0184332
0.000858945
0.0773339
0.0138707
0.0138707
-8.00879e-05
0.0428377
0.00585213
0.0773339
0.0138707
0.220583
0.0428377
0.650192
0.16155
0.854535
0.406258
0.16155
0.0184332
0.406258
0.0773339
0.406258
0.0773339
0.721356
0.220583
0.854535
0.406258
0.954787
0.721356
0.942953
0.875039
1.00153
0.978782
1.00153
0.978782
1.00178
0.99107
0.875039
0.650192
0.978782
0.854535
0.978782
0.854535
0.99107
0.954787
0.995541
0.981506
0.998102
1.00027
0.981506
0.942953
1.00027
1.00178
0.999028
0.998353
0.99896
0.998294
0.998353
0.995541
0.998294
0.998102
0.999616
0.99992
0.999529
0.999648
0.99992
0.999028
0.999648
0.99896
0.998355
0.998695
0.99865
0.998818
0.998695
0.999616
0.998818
0.99953
0.998199
0.998322
0.998885
0.998749
0.998322
0.998355
0.998749
0.99865
0.998514
0.998359
0.998726
0.998741
0.998359
0.998199
0.998741
0.998885
0.999784
0.999111
0.9999
0.999153
0.615153
0.53184
0.671476
0.448024
0.53184
0.207448
0.448024
0.127456
0.448024
0.127456
0.16155
0.0184332
0.671476
0.448024
0.650192
0.16155
0.578291
0.578462
0.769859
0.705934
0.578462
0.615153
0.705934
0.671476
0.705934
0.671476
0.875039
0.650192
0.769859
0.705934
0.942953
0.875039
0.870457
0.797323
0.977338
0.919428
0.797324
0.578291
0.919428
0.769859
0.919428
0.769859
0.981506
0.942953
0.977338
0.919428
0.995541
0.981506
0.966738
0.913505
0.992984
0.990162
0.913505
0.870457
0.990162
0.977338
0.990162
0.977338
0.998353
0.995541
0.992984
0.990162
0.999028
0.998353
0.984823
0.987347
0.996981
0.998487
0.987347
0.966738
0.998487
0.992984
0.998487
0.992984
0.99992
0.999028
0.996981
0.998487
0.999616
0.99992
0.930981
0.959995
0.990664
0.992549
0.959995
0.984823
0.992549
0.996981
0.992549
0.996981
0.998695
0.999616
0.990665
0.992549
0.998355
0.998695
0.928462
0.930981
0.990664
0.990664
0.990664
0.990664
0.998322
0.998355
0.990687
0.990664
0.998199
0.998322
0.990856
0.990687
0.998359
0.998199
0.559053
0.417776
0.615153
0.53184
0.43433
0.39558
0.643012
0.595868
0.39558
0.2808
0.595868
0.559053
0.595868
0.559053
0.578462
0.615153
0.643012
0.595868
0.578291
0.578462
0.00997647
0.217743
0.289146
0.62903
0.217743
0.43433
0.62903
0.643013
0.62903
0.643013
0.797324
0.578291
0.289146
0.62903
0.870457
0.797323
0.0593267
0.0306031
0.571434
0.360777
0.0306031
0.00997647
0.360777
0.289146
0.360777
0.289146
0.913505
0.870457
0.571434
0.360777
0.966738
0.913505
0.130211
0.0593267
0.754686
0.571434
0.754686
0.571434
0.987347
0.966738
0.715822
0.754686
0.984823
0.987347
0.526012
0.715822
0.959995
0.984823
0.0190367
0.0270375
0.39558
0.2808
0.0194214
0.0190367
0.43433
0.39558
-0.00262746
0.00100505
0.000464709
0.0240338
0.00100505
0.0240743
0.0240338
0.0194214
0.0240338
0.0194214
0.217743
0.43433
0.000464709
0.0240338
0.00997647
0.217743
0.00652109
0.000464709
0.0306032
0.00997647
-2.16214e-06
-1.30054e-06
4.89228e-06
3.37668e-06
-1.30054e-06
-1.848e-06
3.37668e-06
4.13269e-06
-1.848e-06
-1.61485e-06
4.13269e-06
3.99314e-06
-1.61485e-06
1.16846e-06
3.99314e-06
3.83559e-06
1.16846e-06
1.9845e-06
3.83559e-06
2.40743e-06
1.9845e-06
-9.74255e-06
2.40743e-06
-4.43646e-06
-9.74255e-06
-5.49091e-06
-4.43645e-06
-1.01398e-06
-5.49091e-06
8.42685e-07
-1.01398e-06
-8.96664e-07
8.42685e-07
-3.31911e-07
-8.96665e-07
4.46685e-07
-3.31911e-07
2.06056e-07
4.46685e-07
-7.73263e-08
2.06056e-07
-1.39445e-07
-7.73263e-08
-3.64873e-08
-1.39445e-07
6.26808e-08
-3.64873e-08
-5.96733e-09
6.26808e-08
-3.50729e-08
-5.96732e-09
4.659e-09
-3.50729e-08
1.86646e-08
4.65902e-09
-1.85211e-09
1.86646e-08
-1.02053e-08
-1.85211e-09
8.85225e-10
-1.02053e-08
5.9149e-09
8.85222e-10
-4.32677e-10
5.9149e-09
-3.52724e-09
-4.32678e-10
2.66608e-10
-3.52724e-09
-3.46786e-09
2.66606e-10
-4.1688e-10
4.89228e-06
3.37668e-06
1.25371e-05
8.09892e-06
3.37668e-06
4.13269e-06
8.09892e-06
1.06491e-05
4.13269e-06
3.99314e-06
1.06491e-05
9.85198e-06
3.99314e-06
3.83559e-06
9.85198e-06
1.32181e-06
3.83559e-06
2.40743e-06
1.32181e-06
-2.88968e-06
2.40743e-06
-4.43646e-06
-2.88968e-06
2.27287e-05
-4.43646e-06
-1.01398e-06
2.27287e-05
1.47402e-05
-1.01399e-06
-8.96664e-07
1.47402e-05
-3.72278e-06
-8.96665e-07
4.46685e-07
-3.72278e-06
1.58681e-06
4.46685e-07
-7.73263e-08
1.58681e-06
-7.05104e-07
-7.73263e-08
-3.64873e-08
-7.05104e-07
3.55598e-07
-3.64873e-08
-5.96733e-09
3.55598e-07
-1.9018e-07
-5.96735e-09
4.659e-09
-1.9018e-07
1.07834e-07
4.65899e-09
-1.85212e-09
1.07834e-07
-5.65622e-08
-1.85212e-09
8.8522e-10
-5.65622e-08
3.06508e-08
8.85223e-10
-4.32677e-10
3.06508e-08
-1.75521e-08
-4.3268e-10
2.66607e-10
-1.75521e-08
1.03783e-08
2.66607e-10
-4.1688e-10
1.03783e-08
9.35797e-09
8.09892e-06
1.06491e-05
-2.42423e-05
-3.15118e-05
1.06491e-05
9.85198e-06
-3.15118e-05
-2.97085e-05
9.85198e-06
1.32181e-06
-2.97085e-05
-9.12312e-06
1.32181e-06
-2.88968e-06
-9.12312e-06
3.28156e-06
-2.88968e-06
2.27287e-05
3.28155e-06
-4.91204e-05
2.27287e-05
1.47402e-05
-4.91204e-05
-3.41765e-05
1.47402e-05
-3.72278e-06
-3.41764e-05
9.8375e-06
-3.72278e-06
1.58681e-06
9.8375e-06
-4.28877e-06
1.58681e-06
-7.05104e-07
-4.28877e-06
1.78034e-06
-7.05104e-07
3.55598e-07
1.78034e-06
-8.14264e-07
3.55598e-07
-1.9018e-07
-8.14264e-07
4.64674e-07
-1.9018e-07
1.07834e-07
4.64674e-07
-2.65512e-07
1.07834e-07
-5.65622e-08
-2.65512e-07
1.3864e-07
-5.65622e-08
3.06508e-08
1.3864e-07
-7.51133e-08
3.06508e-08
-1.75521e-08
-7.51133e-08
4.32287e-08
-1.75521e-08
1.03783e-08
4.32287e-08
-2.58582e-08
1.03783e-08
9.35797e-09
-2.58582e-08
-2.22832e-08
-2.42423e-05
-3.15118e-05
5.10759e-05
6.59996e-05
-3.15118e-05
-2.97085e-05
6.59996e-05
5.66415e-05
-2.97085e-05
-9.12312e-06
5.66415e-05
2.06494e-05
-9.12312e-06
3.28155e-06
2.06494e-05
-2.00025e-06
3.28155e-06
-4.91204e-05
-2.00025e-06
9.37941e-05
-4.91204e-05
-3.41764e-05
9.37941e-05
6.74444e-05
-3.41764e-05
9.8375e-06
6.74444e-05
-1.99115e-05
9.8375e-06
-4.28877e-06
-1.99115e-05
8.7375e-06
-4.28877e-06
1.78034e-06
8.7375e-06
-3.6055e-06
1.78034e-06
-8.14264e-07
-3.6055e-06
1.62701e-06
-8.14264e-07
4.64674e-07
1.62701e-06
-9.26375e-07
4.64674e-07
-2.65512e-07
-9.26376e-07
5.3494e-07
-2.65512e-07
1.3864e-07
5.3494e-07
-2.7725e-07
1.3864e-07
-7.51133e-08
-2.7725e-07
1.51358e-07
-7.51133e-08
4.32287e-08
1.51358e-07
-8.68876e-08
4.32286e-08
-2.58582e-08
-8.68875e-08
5.21112e-08
-2.58582e-08
-2.22832e-08
5.21112e-08
4.45718e-08
6.59996e-05
5.66415e-05
-7.8469e-05
-7.45642e-05
5.66415e-05
2.06494e-05
-7.45642e-05
-2.10466e-05
2.06494e-05
-2.00025e-06
-2.10466e-05
1.03495e-05
-2.00025e-06
9.37941e-05
1.03495e-05
-0.00013601
9.37941e-05
6.74444e-05
-0.00013601
-9.12613e-05
6.74444e-05
-1.99115e-05
-9.12613e-05
2.35451e-05
-1.99115e-05
8.7375e-06
2.35451e-05
-1.02297e-05
8.7375e-06
-3.6055e-06
-1.02297e-05
4.49156e-06
-3.6055e-06
1.62701e-06
4.49156e-06
-2.20903e-06
1.62701e-06
-9.26376e-07
-2.20903e-06
1.21219e-06
-9.26376e-07
5.3494e-07
1.21219e-06
-6.92231e-07
5.34939e-07
-2.7725e-07
-6.92231e-07
3.6177e-07
-2.7725e-07
1.51358e-07
3.6177e-07
-1.96762e-07
1.51358e-07
-8.68876e-08
-1.96762e-07
1.14145e-07
-8.68875e-08
5.21112e-08
1.14145e-07
-6.90956e-08
5.21112e-08
4.45718e-08
-6.90956e-08
-6.02859e-08
-7.45642e-05
-2.10466e-05
0.000140858
4.05984e-05
-2.10466e-05
1.03495e-05
4.05984e-05
-1.92329e-05
1.03495e-05
-0.00013601
-1.92329e-05
0.000245946
-0.00013601
-9.12613e-05
0.000245946
0.000164606
-9.12613e-05
2.35451e-05
0.000164606
-4.15118e-05
2.35451e-05
-1.02297e-05
-4.15118e-05
1.80958e-05
-1.02297e-05
4.49156e-06
1.80958e-05
-8.01756e-06
4.49156e-06
-2.20903e-06
-8.01756e-06
3.99676e-06
-2.20903e-06
1.21219e-06
3.99676e-06
-2.19247e-06
1.21219e-06
-6.92231e-07
-2.19247e-06
1.25039e-06
-6.92231e-07
3.6177e-07
1.25039e-06
-6.54642e-07
3.61771e-07
-1.96762e-07
-6.54642e-07
3.56788e-07
-1.96762e-07
1.14145e-07
3.56788e-07
-2.07589e-07
1.14145e-07
-6.90956e-08
-2.07589e-07
1.26715e-07
-6.90956e-08
-6.02859e-08
1.26715e-07
1.10368e-07
4.05984e-05
-1.92329e-05
-8.43929e-05
3.32865e-05
-1.92329e-05
0.000245946
3.32865e-05
-0.000451392
0.000245946
0.000164606
-0.000451392
-0.000303541
0.000164606
-4.15118e-05
-0.000303541
7.57836e-05
-4.15118e-05
1.80958e-05
7.57836e-05
-3.35062e-05
1.80958e-05
-8.01756e-06
-3.35062e-05
1.49687e-05
-8.01756e-06
3.99676e-06
1.49687e-05
-7.43934e-06
3.99676e-06
-2.19247e-06
-7.43934e-06
4.11185e-06
-2.19247e-06
1.25039e-06
4.11185e-06
-2.34866e-06
1.25039e-06
-6.54642e-07
-2.34866e-06
1.23906e-06
-6.54642e-07
3.56788e-07
1.23906e-06
-6.69975e-07
3.56788e-07
-2.07589e-07
-6.69975e-07
3.90906e-07
-2.07589e-07
1.26715e-07
3.90906e-07
-2.39418e-07
3.32865e-05
-0.000205691
-0.000163485
0.000964511
-0.000205691
-0.000451392
0.000964511
0.00095945
-0.000451392
-0.000469529
0.00095945
0.000773214
-0.000469529
-0.000303541
0.000773214
0.000597205
-0.000303541
-7.2988e-05
0.000597205
0.000294127
-7.2988e-05
7.57836e-05
0.000294127
-0.000249446
7.57836e-05
4.60672e-05
-0.000249446
-0.000154113
4.60672e-05
-3.35062e-05
-0.000154113
0.000109021
-3.35062e-05
-2.58055e-05
0.000109021
7.50552e-05
-2.58055e-05
1.49687e-05
7.50552e-05
-3.96711e-05
1.49687e-05
1.24029e-05
-3.96711e-05
-2.41094e-05
1.24029e-05
-7.43934e-06
-2.41094e-05
2.93528e-05
-7.43934e-06
4.11185e-06
2.93528e-05
-1.48767e-05
4.11185e-06
-2.34866e-06
-1.48767e-05
7.72712e-06
-2.34866e-06
1.23906e-06
7.72712e-06
-4.09178e-06
-0.000163485
0.000964512
-5.16155e-06
0.000787806
0.000964512
0.00095945
0.000787806
-0.000649562
0.00095945
0.000773214
-0.000649562
-0.00101269
0.000773214
0.000597205
-0.00101269
-0.000814347
0.000597205
0.000294127
-0.000814347
-7.35919e-05
0.000294127
-0.000249446
-7.35919e-05
7.4862e-05
-0.000249446
-0.000154113
7.4862e-05
6.15413e-05
-0.000154113
0.000109021
6.15413e-05
-5.02953e-05
0.000109021
7.50552e-05
-5.02953e-05
-3.97222e-05
7.50552e-05
-3.96711e-05
-3.97222e-05
5.76626e-05
-3.96711e-05
-2.41094e-05
5.76626e-05
8.22786e-05
-2.41094e-05
2.93528e-05
8.22786e-05
9.08944e-06
2.93528e-05
1.7769e-05