# vtk DataFile Version 2.0
Hex test
ASCII
DATASET UNSTRUCTURED_GRID
POINTS 10184 float
16 48 0
16 50 0
18 48 0
18 50 0
16 50 0
16 52 0
18 50 0
18 52 0
16 52 0
16 54 0
18 52 0
18 54 0
16 54 0
16 56.1667 0
18 54 0
18 56.1667 0
16 56.1667 0
16 60 0
18 56.1667 0
18 60 0
18 48 0
18 50 0
20 48 0
20 50 0
18 50 0
18 52 0
20 50 0
20 52 0
18 52 0
18 54 0
20 52 0
20 54 0
18 54 0
18 56.1667 0
20 54 0
20 56.1667 0
18 56.1667 0
18 60 0
20 56.1667 0
20 60 0
20 48 0
20 50 0
22 48 0
22 50 0
20 50 0
20 52 0
22 50 0
22 52 0
20 52 0
20 54 0
22 52 0
22 54 0
20 54 0
20 56.1667 0
22 54 0
22 56.1667 0
20 56.1667 0
20 60 0
22 56.1667 0
22 60 0
22 46 0
22 47 0
24 46 0
24 47 0
22 47 0
22 48 0
24 47 0
24 48 0
22 48 0
22 50 0
24 48 0
24 50 0
22 50 0
22 52 0
24 50 0
24 52 0
22 52 0
22 54 0
24 52 0
24 54 0
22 54 0
22 56.1667 0
24 54 0
24 56.1667 0
22 56.1667 0
22 60 0
24 56.1667 0
24 60 0
24 48 0
24 50 0
26 48 0
26 50 0
24 50 0
24 52 0
26 50 0
26 52 0
24 52 0
24 54 0
26 52 0
26 54 0
24 54 0
24 56.1667 0
26 54 0
26 56.1667 0
24 56.1667 0
24 60 0
26 56.1667 0
26 60 0
26 48 0
26 50 0
28 48 0
28 50 0
26 50 0
26 52 0
28 50 0
28 52 0
26 52 0
26 54 0
28 52 0
28 54 0
26 54 0
26 56.1667 0
28 54 0
28 56.1667 0
26 56.1667 0
26 60 0
28 56.1667 0
28 60 0
28 48 0
28 50 0
30 48 0
30 50 0
28 50 0
28 52 0
30 50 0
30 52 0
28 52 0
28 54 0
30 52 0
30 54 0
28 54 0
28 56.1667 0
30 54 0
30 56.1667 0
28 56.1667 0
28 60 0
30 56.1667 0
30 60 0
30 48 0
30 50 0
32 48 0
32 50 0
30 50 0
30 52 0
32 50 0
32 52 0
30 52 0
30 54 0
32 52 0
32 54 0
30 54 0
30 56.1667 0
32 54 0
32 56.1667 0
30 56.1667 0
30 60 0
32 56.1667 0
32 60 0
30 46 0
30 47 0
31 46 0
31 47 0
31 46 0
31 47 0
32 46 0
32 47 0
30 47 0
30 48 0
31 47 0
31 48 0
31 47 0
31 48 0
32 47 0
32 48 0
30 44 0
30 45 0
31 44 0
31 45 0
30 45 0
30 46 0
31 45 0
31 46 0
31 45 0
31 46 0
32 45 0
32 46 0
31 44 0
31 45 0
32 44 0
32 45 0
30 42 0
30 43 0
31 42 0
31 43 0
30 43 0
30 44 0
31 43 0
31 44 0
31 43 0
31 44 0
32 43 0
32 44 0
31 42 0
31 43 0
32 42 0
32 43 0
28 46 0
28 47 0
29 46 0
29 47 0
29 46 0
29 47 0
30 46 0
30 47 0
28 47 0
28 48 0
29 47 0
29 48 0
29 47 0
29 48 0
30 47 0
30 48 0
28 44 0
28 45 0
29 44 0
29 45 0
28 45 0
28 46 0
29 45 0
29 46 0
29 45 0
29 46 0
30 45 0
30 46 0
29 44 0
29 45 0
30 44 0
30 45 0
28 42 0
28 43 0
29 42 0
29 43 0
28 43 0
28 44 0
29 43 0
29 44 0
29 43 0
29 44 0
30 43 0
30 44 0
29 42 0
29 43 0
30 42 0
30 43 0
28 41 0
28 42 0
29 41 0
29 42 0
29 41 0
29 42 0
30 41 0
30 42 0
26 46 0
26 47 0
27 46 0
27 47 0
27 46 0
27 47 0
28 46 0
28 47 0
26 47 0
26 48 0
27 47 0
27 48 0
27 47 0
27 48 0
28 47 0
28 48 0
26 44 0
26 45 0
27 44 0
27 45 0
26 45 0
26 46 0
27 45 0
27 46 0
27 45 0
27 46 0
28 45 0
28 46 0
27 44 0
27 45 0
28 44 0
28 45 0
26 42 0
26 43 0
27 42 0
27 43 0
26 43 0
26 44 0
27 43 0
27 44 0
27 43 0
27 44 0
28 43 0
28 44 0
27 42 0
27 43 0
28 42 0
28 43 0
26 40 0
26 41 0
27 40 0
27 41 0
26 41 0
26 42 0
27 41 0
27 42 0
27 41 0
27 42 0
28 41 0
28 42 0
27 40 0
27 41 0
28 40 0
28 41 0
24 46 0
24 47 0
26 46 0
26 47 0
24 47 0
24 48 0
26 47 0
26 48 0
24 44 0
24 45 0
25 44 0
25 45 0
25 44 0
25 45 0
26 44 0
26 45 0
24 45 0
24 46 0
25 45 0
25 46 0
25 45 0
25 46 0
26 45 0
26 46 0
24 42 0
24 43 0
25 42 0
25 43 0
24 43 0
24 44 0
25 43 0
25 44 0
25 43 0
25 44 0
26 43 0
26 44 0
25 42 0
25 43 0
26 42 0
26 43 0
24 40 0
24 41 0
25 40 0
25 41 0
24 41 0
24 42 0
25 41 0
25 42 0
25 41 0
25 42 0
26 41 0
26 42 0
25 40 0
25 41 0
26 40 0
26 41 0
24 39 0
24 40 0
25 39 0
25 40 0
25 39 0
25 40 0
26 39 0
26 40 0
22 44 0
22 45 0
23 44 0
23 45 0
23 44 0
23 45 0
24 44 0
24 45 0
22 45 0
22 46 0
23 45 0
23 46 0
23 45 0
23 46 0
24 45 0
24 46 0
22 42 0
22 43 0
23 42 0
23 43 0
22 43 0
22 44 0
23 43 0
23 44 0
23 43 0
23 44 0
24 43 0
24 44 0
23 42 0
23 43 0
24 42 0
24 43 0
22 40 0
22 41 0
23 40 0
23 41 0
22 41 0
22 42 0
23 41 0
23 42 0
23 41 0
23 42 0
24 41 0
24 42 0
23 40 0
23 41 0
24 40 0
24 41 0
22 39 0
22 40 0
23 39 0
23 40 0
23 39 0
23 40 0
24 39 0
24 40 0
20 46 0
20 47 0
22 46 0
22 47 0
20 47 0
20 48 0
22 47 0
22 48 0
20 44 0
20 45 0
21 44 0
21 45 0
21 44 0
21 45 0
22 44 0
22 45 0
20 45 0
20 46 0
21 45 0
21 46 0
21 45 0
21 46 0
22 45 0
22 46 0
20 42 0
20 43 0
21 42 0
21 43 0
20 43 0
20 44 0
21 43 0
21 44 0
21 43 0
21 44 0
22 43 0
22 44 0
21 42 0
21 43 0
22 42 0
22 43 0
20 40 0
20 41 0
21 40 0
21 41 0
20 41 0
20 42 0
21 41 0
21 42 0
21 41 0
21 42 0
22 41 0
22 42 0
21 40 0
21 41 0
22 40 0
22 41 0
21 39 0
21 40 0
22 39 0
22 40 0
18 46 0
18 47 0
19 46 0
19 47 0
19 46 0
19 47 0
20 46 0
20 47 0
18 47 0
18 48 0
19 47 0
19 48 0
19 47 0
19 48 0
20 47 0
20 48 0
18 44 0
18 45 0
19 44 0
19 45 0
18 45 0
18 46 0
19 45 0
19 46 0
19 45 0
19 46 0
20 45 0
20 46 0
19 44 0
19 45 0
20 44 0
20 45 0
18 42 0
18 43 0
19 42 0
19 43 0
18 43 0
18 44 0
19 43 0
19 44 0
19 43 0
19 44 0
20 43 0
20 44 0
19 42 0
19 43 0
20 42 0
20 43 0
18 41 0
18 42 0
19 41 0
19 42 0
19 41 0
19 42 0
20 41 0
20 42 0
19 40 0
19 41 0
20 40 0
20 41 0
16 46 0
16 47 0
17 46 0
17 47 0
17 46 0
17 47 0
18 46 0
18 47 0
16 47 0
16 48 0
17 47 0
17 48 0
17 47 0
17 48 0
18 47 0
18 48 0
16 45 0
16 46 0
17 45 0
17 46 0
17 45 0
17 46 0
18 45 0
18 46 0
17 44 0
17 45 0
18 44 0
18 45 0
17 43 0
17 44 0
18 43 0
18 44 0
17 42 0
17 43 0
18 42 0
18 43 0
17 41 0
17 42 0
18 41 0
18 42 0
24 24 0
24 26 0
26 24 0
26 26 0
24 26 0
24 28 0
26 26 0
26 28 0
24 28 0
24 30 0
26 28 0
26 30 0
24 30 0
24 32 0
26 30 0
26 32 0
24 32 0
24 34 0
26 32 0
26 34 0
24 34 0
24 36 0
26 34 0
26 36 0
26 22 0
26 24 0
28 22 0
28 24 0
26 24 0
26 26 0
28 24 0
28 26 0
26 26 0
26 28 0
28 26 0
28 28 0
26 28 0
26 30 0
28 28 0
28 30 0
26 30 0
26 32 0
28 30 0
28 32 0
26 32 0
26 34 0
28 32 0
28 34 0
26 34 0
26 36 0
28 34 0
28 36 0
28 22 0
28 24 0
30 22 0
30 24 0
28 24 0
28 26 0
30 24 0
30 26 0
28 26 0
28 28 0
30 26 0
30 28 0
28 28 0
28 30 0
30 28 0
30 30 0
28 30 0
28 32 0
30 30 0
30 32 0
28 32 0
28 34 0
30 32 0
30 34 0
28 34 0
28 35 0
30 34 0
30 35 0
28 35 0
28 36 0
30 35 0
30 36 0
30 22 0
30 24 0
32 22 0
32 24 0
30 24 0
30 26 0
32 24 0
32 26 0
30 26 0
30 28 0
32 26 0
32 28 0
30 28 0
30 30 0
32 28 0
32 30 0
30 30 0
30 32 0
32 30 0
32 32 0
30 32 0
30 33 0
32 32 0
32 33 0
30 33 0
30 34 0
32 33 0
32 34 0
30 34 0
30 35 0
32 34 0
32 35 0
30 35 0
30 36 0
32 35 0
32 36 0
32 22 0
32 23 0
34 22 0
34 23 0
32 23 0
32 24 0
34 23 0
34 24 0
32 24 0
32 25 0
34 24 0
34 25 0
32 25 0
32 26 0
34 25 0
34 26 0
32 26 0
32 27 0
34 26 0
34 27 0
32 27 0
32 28 0
34 27 0
34 28 0
32 28 0
32 29 0
34 28 0
34 29 0
32 29 0
32 30 0
34 29 0
34 30 0
32 30 0
32 31 0
34 30 0
34 31 0
32 31 0
32 32 0
34 31 0
34 32 0
32 32 0
32 33 0
34 32 0
34 33 0
32 33 0
32 34 0
34 33 0
34 34 0
34 22 0
34 23 0
36 22 0
36 23 0
34 23 0
34 24 0
36 23 0
36 24 0
34 24 0
34 25 0
36 24 0
36 25 0
34 25 0
34 26 0
36 25 0
36 26 0
34 26 0
34 27 0
36 26 0
36 27 0
34 27 0
34 28 0
36 27 0
36 28 0
34 28 0
34 29 0
36 28 0
36 29 0
34 29 0
34 30 0
36 29 0
36 30 0
34 30 0
34 31 0
36 30 0
36 31 0
34 31 0
34 32 0
36 31 0
36 32 0
40 26 0
40 27 0
41 26 0
41 27 0
38 34 0
38 35 0
39 34 0
39 35 0
38 35 0
38 36 0
39 35 0
39 36 0
38 32 0
38 33 0
39 32 0
39 33 0
38 33 0
38 34 0
39 33 0
39 34 0
39 32 0
39 33 0
40 32 0
40 33 0
38 30 0
38 31 0
39 30 0
39 31 0
38 31 0
38 32 0
39 31 0
39 32 0
39 31 0
39 32 0
40 31 0
40 32 0
39 30 0
39 31 0
40 30 0
40 31 0
38 28 0
38 29 0
39 28 0
39 29 0
38 29 0
38 30 0
39 29 0
39 30 0
39 29 0
39 30 0
40 29 0
40 30 0
39 28 0
39 29 0
40 28 0
40 29 0
38 26 0
38 27 0
39 26 0
39 27 0
38 27 0
38 28 0
39 27 0
39 28 0
39 27 0
39 28 0
40 27 0
40 28 0
39 26 0
39 27 0
40 26 0
40 27 0
38 24 0
38 25 0
39 24 0
39 25 0
38 25 0
38 26 0
39 25 0
39 26 0
39 25 0
39 26 0
40 25 0
40 26 0
38 23 0
38 24 0
39 23 0
39 24 0
36 38 0
36 39 0
37 38 0
37 39 0
36 36 0
36 37 0
37 36 0
37 37 0
36 37 0
36 38 0
37 37 0
37 38 0
37 37 0
37 38 0
38 37 0
38 38 0
37 36 0
37 37 0
38 36 0
38 37 0
36 34 0
36 35 0
37 34 0
37 35 0
36 35 0
36 36 0
37 35 0
37 36 0
37 35 0
37 36 0
38 35 0
38 36 0
37 34 0
37 35 0
38 34 0
38 35 0
36 32 0
36 33 0
37 32 0
37 33 0
37 32 0
37 33 0
38 32 0
38 33 0
36 33 0
36 34 0
37 33 0
37 34 0
37 33 0
37 34 0
38 33 0
38 34 0
36 30 0
36 31 0
38 30 0
38 31 0
36 31 0
36 32 0
38 31 0
38 32 0
36 28 0
36 29 0
38 28 0
38 29 0
36 29 0
36 30 0
38 29 0
38 30 0
36 26 0
36 27 0
38 26 0
38 27 0
36 27 0
36 28 0
38 27 0
38 28 0
36 24 0
36 25 0
38 24 0
38 25 0
36 25 0
36 26 0
38 25 0
38 26 0
36 22 0
36 23 0
38 22 0
38 23 0
36 23 0
36 24 0
38 23 0
38 24 0
34 40 0
34 41 0
35 40 0
35 41 0
34 38 0
34 39 0
35 38 0
35 39 0
34 39 0
34 40 0
35 39 0
35 40 0
35 39 0
35 40 0
36 39 0
36 40 0
35 38 0
35 39 0
36 38 0
36 39 0
34 36 0
34 37 0
35 36 0
35 37 0
34 37 0
34 38 0
35 37 0
35 38 0
35 37 0
35 38 0
36 37 0
36 38 0
35 36 0
35 37 0
36 36 0
36 37 0
34 34 0
34 35 0
35 34 0
35 35 0
35 34 0
35 35 0
36 34 0
36 35 0
34 35 0
34 36 0
35 35 0
35 36 0
35 35 0
35 36 0
36 35 0
36 36 0
34 32 0
34 33 0
36 32 0
36 33 0
34 33 0
34 34 0
36 33 0
36 34 0
32 40 0
32 41 0
33 40 0
33 41 0
32 41 0
32 42 0
33 41 0
33 42 0
33 40 0
33 41 0
34 40 0
34 41 0
32 38 0
32 39 0
33 38 0
33 39 0
32 39 0
32 40 0
33 39 0
33 40 0
33 39 0
33 40 0
34 39 0
34 40 0
33 38 0
33 39 0
34 38 0
34 39 0
32 36 0
32 37 0
33 36 0
33 37 0
33 36 0
33 37 0
34 36 0
34 37 0
32 37 0
32 38 0
33 37 0
33 38 0
33 37 0
33 38 0
34 37 0
34 38 0
32 34 0
32 35 0
34 34 0
34 35 0
32 35 0
32 36 0
34 35 0
34 36 0
30 40 0
30 41 0
31 40 0
31 41 0
30 41 0
30 42 0
31 41 0
31 42 0
31 41 0
31 42 0
32 41 0
32 42 0
31 40 0
31 41 0
32 40 0
32 41 0
30 38 0
30 39 0
31 38 0
31 39 0
30 39 0
30 40 0
31 39 0
31 40 0
31 39 0
31 40 0
32 39 0
32 40 0
31 38 0
31 39 0
32 38 0
32 39 0
30 36 0
30 37 0
31 36 0
31 37 0
31 36 0
31 37 0
32 36 0
32 37 0
30 37 0
30 38 0
31 37 0
31 38 0
31 37 0
31 38 0
32 37 0
32 38 0
28 40 0
28 41 0
29 40 0
29 41 0
29 40 0
29 41 0
30 40 0
30 41 0
28 38 0
28 39 0
29 38 0
29 39 0
28 39 0
28 40 0
29 39 0
29 40 0
29 39 0
29 40 0
30 39 0
30 40 0
29 38 0
29 39 0
30 38 0
30 39 0
28 36 0
28 37 0
29 36 0
29 37 0
29 36 0
29 37 0
30 36 0
30 37 0
28 37 0
28 38 0
29 37 0
29 38 0
29 37 0
29 38 0
30 37 0
30 38 0
26 38 0
26 39 0
27 38 0
27 39 0
26 39 0
26 40 0
27 39 0
27 40 0
27 39 0
27 40 0
28 39 0
28 40 0
27 38 0
27 39 0
28 38 0
[...]
POINT_DATA 10184
SCALARS phi float 1
LOOKUP_TABLE default
-1.24587e-05
6.30978e-06
9.16878e-05
-1.22247e-05
6.30978e-06
-4.98044e-06
-1.22247e-05
1.71367e-05
-4.98044e-06
3.49706e-06
1.71367e-05
-8.73044e-06
3.49706e-06
-2.81787e-06
-8.73044e-06
3.84393e-06
-2.81787e-06
-1.85005e-06
3.84393e-06
3.72875e-06
9.16878e-05
-1.22247e-05
0.000142399
3.48284e-05
-1.22247e-05
1.71367e-05
3.48284e-05
-1.16603e-05
1.71367e-05
-8.73044e-06
-1.16603e-05
7.98896e-06
-8.73043e-06
3.84393e-06
7.98896e-06
-5.49743e-06
3.84394e-06
3.72875e-06
-5.49743e-06
-4.0621e-06
0.000142399
3.48284e-05
3.25441e-05
2.12518e-05
3.48284e-05
-1.16603e-05
2.12518e-05
-1.22574e-05
-1.16603e-05
7.98896e-06
-1.22574e-05
8.19683e-06
7.98896e-06
-5.49743e-06
8.19683e-06
-5.92606e-06
-5.49743e-06
-4.0621e-06
-5.92606e-06
-3.87473e-06
-0.000153429
0.000123071
-0.000196087
0.000202693
0.000123071
3.25441e-05
0.000202693
9.49263e-05
3.25441e-05
2.12518e-05
9.49263e-05
3.50355e-05
2.12518e-05
-1.22574e-05
3.50355e-05
-1.52331e-05
-1.22574e-05
8.19683e-06
-1.52331e-05
1.02891e-05
8.19683e-06
-5.92606e-06
1.02891e-05
-7.30763e-06
-5.92606e-06
-3.87473e-06
-7.30763e-06
-5.07665e-06
9.49263e-05
3.50355e-05
0.000170592
4.8648e-05
3.50355e-05
-1.52331e-05
4.8648e-05
-1.84428e-05
-1.52331e-05
1.02891e-05
-1.84428e-05
1.22832e-05
1.02891e-05
-7.30763e-06
1.22832e-05
-8.37875e-06
-7.30763e-06
-5.07665e-06
-8.37875e-06
-6.02856e-06
0.000170592
4.8648e-05
0.000171706
2.78904e-05
4.8648e-05
-1.84428e-05
2.78904e-05
-1.82735e-06
-1.84428e-05
1.22832e-05
-1.82735e-06
2.83825e-06
1.22832e-05
-8.37875e-06
2.83825e-06
-3.01494e-06
-8.37875e-06
-6.02856e-06
-3.01494e-06
-1.89601e-06
0.000171706
2.78904e-05
0.000127817
-1.53875e-05
2.78904e-05
-1.82736e-06
-1.53875e-05
2.09749e-05
-1.82736e-06
2.83825e-06
2.09749e-05
-1.24397e-05
2.83825e-06
-3.01494e-06
-1.24397e-05
7.86617e-06
-3.01494e-06
-1.89601e-06
7.86617e-06
5.25727e-06
0.000127817
-1.53875e-05
4.13587e-05
1.16002e-05
-1.53875e-05
2.09749e-05
1.16002e-05
-2.48995e-06
2.09749e-05
-1.24397e-05
-2.48995e-06
1.13654e-06
-1.24397e-05
7.86617e-06
1.13653e-06
-6.89613e-07
7.86617e-06
5.25727e-06
-6.89614e-07
-1.06068e-06
0.000612927
0.000176185
0.000216706
1.07631e-05
0.000216706
1.07631e-05
6.54095e-05
7.65722e-05
0.000176185
0.000127817
1.07631e-05
8.50328e-05
1.07631e-05
8.50328e-05
7.65722e-05
4.13587e-05
0.00174386
-0.000925514
0.000158374
5.8511e-05
-0.000925514
0.000612927
5.8511e-05
0.000216706
5.8511e-05
0.000216706
6.88441e-05
6.54095e-05
0.000158374
5.8511e-05
7.42399e-05
6.88441e-05
0.00887169
-0.00386276
0.0019891
-0.000484649
-0.00386276
0.00174386
-0.000484649
0.000158373
-0.00048465
0.000158373
-0.000112485
7.42399e-05
0.0019891
-0.000484649
0.000977358
-0.000112485
9.97655e-05
0.000238235
0.000487787
0.000250085
0.000487787
0.000250085
0.000612927
0.000176185
0.000238235
0.000171706
0.000250085
0.000155986
0.000250085
0.000155986
0.000176185
0.000127817
-0.000615169
0.00052003
0.00111382
-0.000684775
0.00052003
9.97655e-05
-0.000684775
0.000487787
-0.000684775
0.000487787
-0.000925514
0.000612927
0.00111382
-0.000684775
0.00174386
-0.000925514
-0.00231136
0.00139894
0.0060347
-0.00247375
0.00139894
-0.000615169
-0.00247375
0.00111382
-0.00247375
0.00111382
-0.00386276
0.00174386
0.0060347
-0.00247375
0.00887169
-0.00386276
0.0134092
-0.00231136
0.0222436
0.0060347
0.0222436
0.0060347
0.0306257
0.00887169
-7.65018e-05
0.000384647
-5.98034e-05
0.000317514
-5.98034e-05
0.000317514
9.97655e-05
0.000238235
0.000384647
0.000170592
0.000317514
0.000178646
0.000317514
0.000178646
0.000238235
0.000171706
-0.00131967
0.000908975
-0.00127139
0.000985453
0.000908975
-7.65018e-05
0.000985453
-5.98034e-05
0.000985453
-5.98034e-05
0.00052003
9.97655e-05
-0.00127139
0.000985453
-0.000615169
0.00052003
-0.00527639
0.00282557
-0.0052392
0.00279326
0.00282557
-0.00131967
0.00279326
-0.00127139
0.00279326
-0.00127139
0.00139894
-0.000615169
-0.0052392
0.00279326
-0.00231136
0.00139894
0.0876076
0.0136917
0.0903093
0.0138242
0.0136917
-0.00527639
0.0138242
-0.0052392
0.0138242
-0.0052392
0.0134092
-0.00231136
0.0903093
0.0138242
0.156802
0.0134092
-0.000196087
0.000202693
-7.65018e-05
0.000384647
0.000202693
9.49263e-05
0.000384647
0.000170592
-0.00128705
0.000740499
-0.00138801
0.000827522
-0.00138801
0.000827522
-0.00131967
0.000908975
0.000740499
-0.000196087
0.000827522
-0.000136284
0.000827522
-0.000136284
0.000908975
-7.65018e-05
-0.00506867
0.00267717
-0.00543763
0.00287954
0.00267717
-0.00128705
0.00287954
-0.00138801
0.00287954
-0.00138801
0.00282557
-0.00131967
-0.00543763
0.00287954
-0.00527639
0.00282557
0.0425364
0.0118953
0.0750338
0.0135932
0.0118953
-0.00506867
0.0135933
-0.00543763
0.0135932
-0.00543763
0.0136917
-0.00527639
0.0750338
0.0135932
0.0876076
0.0136917
0.514559
0.0425364
0.646096
0.0750338
0.646096
0.0750338
0.686787
0.0876076
-0.000819262
0.000470711
-0.000938443
0.000549304
-0.000938443
0.000549304
-0.00128705
0.000740499
0.000470711
-0.000153429
0.000549304
-0.000185107
0.000549304
-0.000185107
0.000740499
-0.000196087
-0.00326052
0.00169936
-0.00364974
0.00191634
0.00169936
-0.000819262
0.00191634
-0.000938443
0.00191634
-0.000938443
0.00267717
-0.00128705
-0.00364974
0.00191634
-0.00506867
0.00267717
0.0208325
0.00745003
0.0235576
0.00857827
0.00745003
-0.00326052
0.00857827
-0.00364974
0.00857827
-0.00364974
0.0118953
-0.00506867
0.0235576
0.00857827
0.0425364
0.0118953
0.370398
0.0208325
0.39306
0.0235576
0.39306
0.0235576
0.514559
0.0425364
-6.69417e-06
0.000299982
-0.000153429
0.000123071
0.000299982
0.000142399
0.000123071
3.25441e-05
-0.00111957
0.000552446
-0.00119641
0.000675971
-0.00119641
0.000675971
-0.000819262
0.000470711
0.000552446
-6.69413e-06
0.00067597
-0.000138557
0.00067597
-0.000138557
0.000470711
-0.000153429
-0.00402864
0.00225797
-0.00463237
0.00248209
0.00225797
-0.00111957
0.00248209
-0.00119641
0.00248209
-0.00119641
0.00169936
-0.000819262
-0.00463237
0.00248209
-0.00326052
0.00169936
0.108194
0.0143175
0.0390328
0.0112377
0.0143175
-0.00402864
0.0112377
-0.00463237
0.0112377
-0.00463237
0.00745003
-0.00326052
0.0390328
0.0112377
0.0208325
0.00745003
0.482851
0.0390328
0.370398
0.0208325
0.000406715
8.61719e-05
0.000304572
0.000244879
0.000304572
0.000244879
-6.69419e-06
0.000299982
8.61719e-05
9.16878e-05
0.000244879
0.000140403
0.000244879
0.000140403
0.000299982
0.000142399
0.00117152
-0.000544671
0.000379548
-0.00013082
-0.000544671
0.000406715
-0.00013082
0.000304572
-0.00013082
0.000304572
0.000552446
-6.69414e-06
0.000379548
-0.00013082
-0.00111957
0.000552446
0.00670376
-0.00221651
0.00268374
-0.00074169
-0.00221651
0.00117152
-0.00074169
0.000379548
-0.00074169
0.000379548
0.00225797
-0.00111957
0.00268374
-0.00074169
-0.00402864
0.00225797
0.0284173
0.00670376
0.0186831
0.00268374
0.0186831
0.00268374
0.0143175
-0.00402864
0.259673
0.0186831
0.108194
0.0143175
-0.000156148
-1.94365e-05
5.3224e-05
-4.86257e-05
5.3224e-05
-4.86257e-05
0.000406715
8.61719e-05
-1.94365e-05
-1.24587e-05
-4.86258e-05
2.86119e-05
-4.86258e-05
2.86119e-05
8.61719e-05
9.16878e-05
0.000187409
-0.000156148
-7.26318e-05
5.3224e-05
-7.26318e-05
5.3224e-05
-0.000544671
0.000406715
0.000159219
-7.26318e-05
0.00117152
-0.000544671
-0.000232575
0.000159219
-0.00221651
0.00117152
0.00298391
-0.000232575
0.00670376
-0.00221651
0.027292
0.00298391
0.0284173
0.00670376
0.999898
0.999714
1.00048
1.00031
0.999714
1.00006
1.00031
1.00054
1.00006
0.999315
1.00054
1.0002
0.999315
1.00085
1.0002
1.00043
1.00085
0.999084
1.00043
0.998542
0.999084
0.999055
0.998542
0.999347
1.00033
1.00048
0.999205
0.999161
1.00048
1.00031
0.999161
0.999194
1.00031
1.00054
0.999194
0.999245
1.00054
1.0002
0.999245
0.999094
1.0002
1.00043
0.999094
0.999931
1.00043
0.998542
0.999931
1.00088
0.998542
0.999347
1.00088
1.00011
0.999205
0.999161
1.00149
1.00158
0.999161
0.999194
1.00158
1.00154
0.999194
0.999245
1.00154
1.00132
0.999245
0.999094
1.00132
1.00164
0.999094
0.999931
1.00164
0.999637
0.999931
1.00088
0.999637
0.997575
1.00088
1.00126
0.997575
0.995034
1.00126
1.00011
0.995034
0.998678
1.00149
1.00158
0.997397
0.997335
1.00158
1.00154
0.997335
0.997181
1.00154
1.00132
0.997181
0.998352
1.00132
1.00164
0.998352
0.995457
1.00164
0.999637
0.995457
1.00094
0.999637
0.998959
1.00094
0.999491
0.998959
0.997575
0.999491
1.00571
0.997575
0.995034
1.00571
1.00665
0.995034
0.998678
1.00665
0.994628
0.997397
0.997383
1.00554
1.00487
0.997383
0.997335
1.00487
1.00487
0.997335
0.997016
1.00487
1.00502
0.997016
0.997181
1.00502
1.00543
0.997181
0.998255
1.00543
1.00555
0.998255
0.998352
1.00555
1.00578
0.998352
0.996217
1.00578
1.00675
0.996217
0.995457
1.00675
1.00738
0.995457
0.99884
1.00738
1.00573
0.99884
1.00094
1.00573
1.00056
1.00094
0.999491
1.00056
0.995754
0.999491
1.00571
0.995754
0.994747
1.00554
1.00487
0.993112
0.992989
1.00487
1.00487
0.992989
0.993263
1.00487
1.00502
0.993263
0.993112
1.00502
1.00543
0.993112
0.992969
1.00543
1.00555
0.992969
0.993091
1.00555
1.00578
0.993091
0.992826
1.00578
1.00675
0.992826
0.992109
1.00675
1.00738
0.992109
0.992246
1.00738
1.00573
0.992246
0.993443
1.00573
1.00056
0.993443
0.999706
0.00861299
0.00814931
-0.00052598
-0.00049531
0.104024
0.0278392
0.0193599
0.00277544
0.0278392
0.0055182
0.00277544
-0.00109753
0.663969
0.425759
0.0836588
0.0113534
0.425759
0.104024
0.0113534
0.0193599
0.0836588
0.0113534
0.0125272
0.014652
0.750703
0.739374
0.153108
0.145327
0.739374
0.663969
0.145327
0.0836588
0.145327
0.0836588
0.00792665
0.0125272
0.153108
0.145327
0.0075786
0.00792665
0.748024
0.749732
0.154812
0.153635
0.749732
0.750703
0.153635
0.153108
0.153635
0.153108
0.00776864
0.0075786
0.154812
0.153635
0.00847075
0.00776864
0.747025
0.74639
0.155775
0.154686
0.74639
0.748024
0.154686
0.154812
0.154686
0.154812
0.00814931
0.00847075
0.155775
0.154686
0.00861299
0.00814931
0.748485
0.747233
0.159963
0.155072
0.747233
0.747025
0.155072
0.155775
0.155072
0.155775
0.00810316
0.00861299
0.749783
0.748485
0.158128
0.159963
0.0182084
0.000248167
-0.000498581
0.00125105
0.32827
0.0685929
0.0358208
0.0144168
0.0685929
0.0182084
0.0144167
-0.000498581
0.0144167
-0.000498581
-0.00173634
0.000568145
0.0358208
0.0144168
0.0055182
-0.00173634
0.954421
0.741501
0.694231
0.257328
0.741501
0.32827
0.257328
0.0358208
0.257328
0.0358208
0.0278392
0.0055182
0.694231
0.257328
0.104024
0.0278392
0.999706
0.998565
0.971297
0.857073
0.971297
0.857073
0.663969
0.425759
0.998565
0.954421
0.857073
0.694231
0.857073
0.694231
0.425759
0.104024
0.992246
0.993443
0.750703
0.739374
0.993443
0.999706
0.739374
0.663969
0.992826
0.992109
0.748024
0.749732
0.992109
0.992246
0.749732
0.750703
0.992969
0.993091
0.747025
0.74639
0.993091
0.992826
0.74639
0.748024
0.993263
0.993112
0.748485
0.747233
0.993112
0.992969
0.747233
0.747025
0.993112
0.992989
0.746453
0.749783
0.992989
0.993263
0.749783
0.748485
0.00454472
-0.000789529
-0.00159535
0.00133468
0.277301
0.0250267
0.0760824
0.0133341
0.0250267
0.00454472
0.0133341
-0.00159535
0.0133341
-0.00159535
0.000248167
0.00091256
0.0760824
0.0133341
0.0182084
0.000248167
0.968418
0.813278
0.822049
0.448956
0.813278
0.277301
0.448956
0.0760824
0.448956
0.0760824
0.0685929
0.0182084
0.822049
0.448956
0.32827
0.0685929
0.994747
0.990525
1.00083
0.999045
1.00083
0.999045
0.954421
0.741501
0.990525
0.968418
0.999045
0.822049
0.999045
0.822049
0.741501
0.32827
1.00056
0.995754
0.999706
0.998565
0.995754
0.994747
0.998565
0.954421
0.0618132
0.0080263
0.0188448
-0.00140271
0.0080263
0.000977358
-0.00140271
0.00207367
0.0188448
-0.00140271
0.00454472
-0.000789529
0.727883
0.273985
0.465901
0.0663172
0.273985
0.0618132
0.0663172
0.0188448
0.0663172
0.0188448
0.0250267
0.00454472
0.465901
0.0663172
0.277301
0.0250267
0.994628
0.962343
0.989562
0.938411
0.989562
0.938411
0.968418
0.813278
0.962343
0.727883
0.938411
0.465901
0.938411
0.465901
0.813278
0.277301
1.00571
1.00665
0.994747
0.990525
1.00665
0.994628
0.990525
0.968417
0.410795
0.0306257
0.223908
0.0224721
0.0306257
0.00887169
0.0224721
0.0019891
0.0224721
0.0019891
0.0080263
0.000977358
0.223908
0.0224721
0.0618132
0.0080263
0.978164
0.920544
0.93632
0.727569
0.920544
0.410796
0.727569
0.223908
0.727569
0.223908
0.273985
0.0618132
0.93632
0.727569
0.727883
0.273985
0.998678
1.00489
0.996872
0.987043
0.996872
0.987043
0.994628
0.962343
1.00489
0.978164
0.987043
0.93632
0.987043
0.93632
0.962343
0.727883
0.156802
0.0134092
0.341708
0.0222436
0.341708
0.0222436
0.410796
0.0306257
0.986825
0.787755
0.986356
0.91053
0.787755
0.156802
0.91053
0.341708
0.91053
0.341708
0.920544
0.410796
0.986356
0.91053
0.978164
0.920544
1.00011
0.997435
0.999774
1.00405
0.999774
1.00405
0.998678
1.00489
0.997435
0.986825
1.00405
0.986356
1.00405
0.986356
1.00489
0.978164
0.982952
0.686787
0.982915
0.690215
0.686787
0.0876076
0.690215
0.0903093
0.690215
0.0903093
0.787755
0.156802
0.982915
0.690215
0.986825
0.787755
0.999347
0.996392
0.999796
0.997253
0.999796
0.997253
1.00011
0.997435
0.996392
0.982952
0.997253
0.982915
0.997253
0.982915
0.997435
0.986825
0.959686
0.514559
0.97869
0.646096
0.97869
0.646096
0.982952
0.686787
0.999055
0.992442
0.999199
0.994128
0.999199
0.994128
0.999347
0.996392
0.992442
0.959686
0.994128
0.97869
0.994128
0.97869
0.996392
0.982952
0.927537
0.370398
0.934104
0.39306
0.934104
0.39306
0.959686
0.514559
4.13587e-05
1.16002e-05
-2.09385e-06
-4.41005e-06
1.16002e-05
-2.48995e-06
-4.41006e-06
4.51778e-06
-2.48994e-06
1.13654e-06
4.51778e-06
-2.51812e-06
1.13654e-06
-6.89613e-07
-2.51811e-06
1.35814e-06
-6.89613e-07
-1.06068e-06
1.35814e-06
1.1639e-06
-2.09385e-06
-4.41006e-06
2.81764e-06
4.38828e-06
-4.41005e-06
4.51778e-06
4.38828e-06
-2.3202e-06
4.51779e-06
-2.51811e-06
-2.3202e-06
1.43261e-06
-2.51811e-06
1.35814e-06
1.43261e-06
-9.34315e-07
1.35814e-06
1.1639e-06
-9.34315e-07
-7.11023e-07
2.81764e-06
4.38828e-06
1.31464e-07
-9.22703e-07
4.38828e-06
-2.3202e-06
-9.22703e-07
7.84022e-07
-2.3202e-06
1.43261e-06
7.84022e-07
-4.49963e-07
1.43261e-06
-9.34315e-07
-4.49962e-07
2.75689e-07
-9.34316e-07
-7.11023e-07
2.75689e-07
2.26997e-07
-9.43678e-07
-1.25136e-05
4.14658e-06
2.9193e-06
-1.25136e-05
1.31465e-07
2.9193e-06
5.16568e-07
1.31464e-07
-9.22703e-07
5.16567e-07
-4.20327e-07
-9.22704e-07
7.84022e-07
-4.20327e-07
2.09566e-07
7.84022e-07
-4.49962e-07
2.09566e-07
-1.08102e-07
-4.49963e-07
2.75689e-07
-1.08102e-07
9.39118e-08
2.75689e-07
2.26997e-07
9.39118e-08
6.73182e-08
4.14658e-06
2.9193e-06
-5.87781e-07
-2.74188e-06
2.9193e-06
5.16567e-07
-2.74188e-06
-1.02601e-06
5.16567e-07
-4.20327e-07
-1.02601e-06
2.24208e-07
-4.20327e-07
2.09566e-07
2.24208e-07
-6.53226e-08
2.09566e-07
-1.08102e-07
-6.53226e-08
3.91885e-08
-1.08102e-07
9.39118e-08
3.91885e-08
-3.11068e-08
9.39118e-08
6.73182e-08
-3.11068e-08
-1.51209e-08
3.44782e-06
5.32136e-06
-1.63656e-07
2.36631e-06
5.32136e-06
-5.87781e-07
2.36631e-06
2.41536e-07
-5.87782e-07
-1.02601e-06
2.41536e-07
1.12554e-06
-1.02601e-06
2.24208e-07
1.12554e-06
-4.77926e-07
2.24208e-07
-6.53226e-08
-4.77926e-07
2.6606e-07
-6.53226e-08
3.91886e-08
2.6606e-07
-1.43753e-07
3.91886e-08
-3.11068e-08
-1.43753e-07
8.09829e-08
-3.11068e-08
-1.51209e-08
8.09829e-08
7.89904e-08
-2.08942e-07
4.26375e-06
-5.63392e-07
4.64537e-07
4.26375e-06
-1.63656e-07
4.64537e-07
1.42787e-06
-1.63656e-07
2.36631e-06
1.42787e-06
7.23779e-07
2.36631e-06
2.41536e-07
7.23779e-07
-4.02788e-07
2.41536e-07
1.12554e-06
-4.02788e-07
-2.74162e-07
1.12554e-06
-4.77926e-07
-2.74162e-07
1.6578e-07
-4.77926e-07
2.6606e-07
1.6578e-07
-4.13463e-08
2.6606e-07
-1.43753e-07
-4.13464e-08
2.46149e-08
-1.43753e-07
8.09829e-08
2.46149e-08
-1.35884e-08
8.09829e-08
7.89904e-08
-1.35884e-08
-1.13704e-08
-5.63392e-07
4.64537e-07
-3.35009e-06
-2.6611e-06
4.64537e-07
1.42787e-06
-2.6611e-06
1.53466e-06
1.42787e-06
-4.02788e-07
1.53466e-06
-8.38662e-07
-4.02788e-07
-2.74162e-07
-8.38662e-07
6.32172e-07
-2.74162e-07
1.65779e-07
6.32172e-07
-2.64268e-07
1.6578e-07
-4.13464e-08
-2.64268e-07
1.61478e-07
-4.13463e-08
2.46149e-08
1.61478e-07
-8.06892e-08
2.46149e-08
-1.35884e-08
-8.06892e-08
3.68113e-08
-1.35884e-08
-1.13704e-08
3.68113e-08
3.48652e-08
1.53466e-06
-8.38662e-07
-1.96501e-07
1.61198e-07
-8.38662e-07
6.32172e-07
1.61198e-07
-1.89447e-07
6.32172e-07
-2.64268e-07
-1.89447e-07
6.78706e-08
-2.64268e-07
1.61478e-07
6.78706e-08
-4.23155e-08
1.61478e-07
-8.06892e-08
-4.23155e-08
2.18279e-08
-8.06892e-08
3.68113e-08
2.18279e-08
-1.17083e-08
3.68113e-08
3.48652e-08
-1.17083e-08
-1.26728e-08
-1.965e-07
1.61198e-07
1.19901e-07
-8.28392e-08
1.61198e-07
-1.89447e-07
-8.28391e-08
1.06422e-07
-1.89447e-07
6.78706e-08
1.06422e-07
-4.33829e-08
6.78706e-08
-4.23155e-08
-4.33829e-08
2.4238e-08
-4.23155e-08
2.18279e-08
2.4238e-08
-1.26794e-08
2.18279e-08
-1.17084e-08
-1.26794e-08
6.66218e-09
-1.17083e-08
-1.26728e-08
6.66218e-09
6.27719e-09
1.19901e-07
-8.28391e-08
-5.92579e-08
3.91537e-08
-8.28391e-08
1.06422e-07
3.91537e-08
-6.03126e-08
1.06422e-07
-4.33829e-08
-6.03126e-08
2.62607e-08
-4.33829e-08
2.4238e-08
2.62607e-08
-1.35024e-08
2.4238e-08
-1.26794e-08
-1.35024e-08
7.43578e-09
-1.26794e-08
6.66218e-09
7.43578e-09
-4.25947e-09
6.66218e-09
6.27719e-09
-4.25947e-09
-3.71502e-09
-5.92579e-08
3.91537e-08
2.31082e-08
-9.74792e-09
3.91538e-08
-6.03126e-08
-9.74792e-09
3.53395e-08
-6.03126e-08
2.62607e-08
3.53395e-08
-1.88508e-08
2.62607e-08
-1.35024e-08
-1.88508e-08
7.73008e-09
-1.35024e-08
7.43578e-09
7.73008e-09
-4.91948e-09
7.43578e-09
-4.25947e-09
-4.91948e-09
3.39185e-09
-4.25947e-09
-3.71502e-09
3.39186e-09
2.37535e-09
2.31082e-08
-9.74791e-09
2.70793e-08
-1.85136e-08
-9.7479e-09
3.53395e-08
-1.85136e-08
3.30302e-08
3.53395e-08
-1.88508e-08
3.30302e-08
-1.45794e-08
-1.88508e-08
7.73008e-09
-1.45794e-08
7.13942e-09
7.73008e-09
-4.91948e-09
7.13942e-09
-4.10672e-09
-4.91949e-09
3.39186e-09
-4.10672e-09
2.53699e-09
3.39186e-09
2.37535e-09
2.53699e-09
1.99912e-09
1.48782e-06
7.55268e-06
-2.08942e-07
4.26375e-06
7.55268e-06
3.44782e-06
4.26375e-06
-1.63656e-07
2.11481e-06
-1.05459e-05
3.44782e-06
5.32136e-06
-1.05459e-05
4.14659e-06
5.32136e-06
-5.87781e-07
9.59612e-06
2.5902e-06
3.24414e-06
-7.14494e-06
3.24414e-06
-7.14494e-06
1.48782e-06
7.55269e-06
2.5902e-06
2.11481e-06
-7.14495e-06
6.33233e-06
-7.14495e-06
6.33233e-06
7.55269e-06
3.44782e-06
-9.83898e-08
9.59612e-06
5.0007e-06
3.24414e-06
5.0007e-06
3.24414e-06
-1.14752e-06
1.48782e-06
-8.91735e-06
9.55985e-06
-7.34734e-06
9.97585e-06
-7.34734e-06
9.97585e-06
2.11481e-06
-1.05459e-05
9.55985e-06
-9.43679e-07
9.97585e-06
1.97167e-06
9.97585e-06
1.97167e-06
-1.05459e-05
4.14658e-06
1.85094e-05
-6.86112e-06
-9.32597e-06
-1.35756e-06
-6.86112e-06
-8.91735e-06
-1.35756e-06
-7.34734e-06
-1.35756e-06
-7.34734e-06
2.5902e-06
2.11481e-06
-9.32598e-06
-1.35756e-06
9.59612e-06
2.5902e-06
6.30452e-05
-1.40783e-05
-2.98953e-05
5.6161e-05
-1.40783e-05
1.85094e-05
5.6161e-05
-9.32598e-06
5.6161e-05
-9.32597e-06
-9.83849e-08
9.59612e-06
-2.98953e-05
5.6161e-05
4.65822e-05
-9.83917e-08
-7.80131e-05
6.30452e-05
0.000144545
-2.98953e-05
-1.5029e-05
3.05063e-05
-9.43678e-07
-1.25136e-05
3.05063e-05
2.81764e-06
-1.25136e-05
1.31465e-07
3.28829e-05
2.23409e-05
-1.95316e-05
-5.56735e-05
-1.95316e-05
-5.56735e-05
-8.91735e-06
9.55985e-06
2.23408e-05
-1.5029e-05
-5.56735e-05
-2.86116e-06
-5.56735e-05
-2.86116e-06
9.55985e-06
-9.43678e-07
0.000214217
-9.8737e-05
-0.000112202
5.4332e-05
-9.8737e-05
3.28829e-05
5.4332e-05
-1.95316e-05
5.43321e-05
-1.95316e-05
-6.86112e-06
-8.91735e-06
-0.000112202
5.4332e-05
1.85094e-05
-6.86113e-06
0.000912561
-0.000350471
-0.000395835
0.000248404
-0.000350471
0.000214217
0.000248404
-0.000112202
0.000248404
-0.000112202
-1.40783e-05
1.85094e-05
-0.000395835
0.000248404
6.30452e-05
-1.40783e-05
0.000248168
0.00091256
0.00125105
-0.000395835
0.00125105
-0.000395835
-7.80133e-05
6.30452e-05
1.9696e-05
-5.84833e-05
-2.97362e-05
-5.40081e-05
-2.97362e-05
-5.40081e-05
-1.5029e-05
3.05063e-05
-5.84833e-05
-2.09385e-06
-5.40081e-05
-1.67259e-06
-5.40081e-05
-1.67259e-06
3.05063e-05
2.81764e-06
0.000118111
-8.35951e-05
-0.000162764
3.79086e-05
-8.35951e-05
1.9696e-05
3.79086e-05
-2.97362e-05
3.79086e-05