# vtk DataFile Version 2.0
Hex test
ASCII
DATASET UNSTRUCTURED_GRID
POINTS 8020 float
16 16 0
16 17 0
18 16 0
18 17 0
16 17 0
16 18 0
18 17 0
18 18 0
18 14 0
18 15 0
20 14 0
20 15 0
18 15 0
18 16 0
20 15 0
20 16 0
18 16 0
18 17 0
20 16 0
20 17 0
18 17 0
18 18 0
20 17 0
20 18 0
20 14 0
20 15 0
22 14 0
22 15 0
20 15 0
20 16 0
22 15 0
22 16 0
20 16 0
20 18 0
22 16 0
22 18 0
20 18 0
20 20 0
22 18 0
22 20 0
22 14 0
22 16 0
24 14 0
24 16 0
22 16 0
22 18 0
24 16 0
24 18 0
22 18 0
22 20 0
24 18 0
24 20 0
24 14 0
24 16 0
26 14 0
26 16 0
24 16 0
24 18 0
26 16 0
26 18 0
28 10 0
28 11 0
29 10 0
29 11 0
26 12 0
26 13 0
27 12 0
27 13 0
27 12 0
27 13 0
28 12 0
28 13 0
26 13 0
26 14 0
27 13 0
27 14 0
27 13 0
27 14 0
28 13 0
28 14 0
26 10 0
26 11 0
27 10 0
27 11 0
26 11 0
26 12 0
27 11 0
27 12 0
27 11 0
27 12 0
28 11 0
28 12 0
27 10 0
27 11 0
28 10 0
28 11 0
24 12 0
24 13 0
25 12 0
25 13 0
25 12 0
25 13 0
26 12 0
26 13 0
24 13 0
24 14 0
25 13 0
25 14 0
25 13 0
25 14 0
26 13 0
26 14 0
24 10 0
24 11 0
25 10 0
25 11 0
24 11 0
24 12 0
25 11 0
25 12 0
25 11 0
25 12 0
26 11 0
26 12 0
25 10 0
25 11 0
26 10 0
26 11 0
24 9 0
24 10 0
25 9 0
25 10 0
25 9 0
25 10 0
26 9 0
26 10 0
22 12 0
22 13 0
23 12 0
23 13 0
23 12 0
23 13 0
24 12 0
24 13 0
22 13 0
22 14 0
23 13 0
23 14 0
23 13 0
23 14 0
24 13 0
24 14 0
22 10 0
22 11 0
23 10 0
23 11 0
22 11 0
22 12 0
23 11 0
23 12 0
23 11 0
23 12 0
24 11 0
24 12 0
23 10 0
23 11 0
24 10 0
24 11 0
22 9 0
22 10 0
23 9 0
23 10 0
23 9 0
23 10 0
24 9 0
24 10 0
20 12 0
20 13 0
21 12 0
21 13 0
21 12 0
21 13 0
22 12 0
22 13 0
20 13 0
20 14 0
21 13 0
21 14 0
21 13 0
21 14 0
22 13 0
22 14 0
20 10 0
20 11 0
21 10 0
21 11 0
20 11 0
20 12 0
21 11 0
21 12 0
21 11 0
21 12 0
22 11 0
22 12 0
21 10 0
21 11 0
22 10 0
22 11 0
20 9 0
20 10 0
21 9 0
21 10 0
21 9 0
21 10 0
22 9 0
22 10 0
18 12 0
18 13 0
19 12 0
19 13 0
19 12 0
19 13 0
20 12 0
20 13 0
18 13 0
18 14 0
19 13 0
19 14 0
19 13 0
19 14 0
20 13 0
20 14 0
18 10 0
18 11 0
19 10 0
19 11 0
18 11 0
18 12 0
19 11 0
19 12 0
19 11 0
19 12 0
20 11 0
20 12 0
19 10 0
19 11 0
20 10 0
20 11 0
18 8 0
18 9 0
19 8 0
19 9 0
18 9 0
18 10 0
19 9 0
19 10 0
19 9 0
19 10 0
20 9 0
20 10 0
19 8 0
19 9 0
20 8 0
20 9 0
16 14 0
16 15 0
18 14 0
18 15 0
16 15 0
16 16 0
18 15 0
18 16 0
16 12 0
16 13 0
17 12 0
17 13 0
17 12 0
17 13 0
18 12 0
18 13 0
16 13 0
16 14 0
17 13 0
17 14 0
17 13 0
17 14 0
18 13 0
18 14 0
16 10 0
16 11 0
17 10 0
17 11 0
16 11 0
16 12 0
17 11 0
17 12 0
17 11 0
17 12 0
18 11 0
18 12 0
17 10 0
17 11 0
18 10 0
18 11 0
16 8 0
16 9 0
17 8 0
17 9 0
16 9 0
16 10 0
17 9 0
17 10 0
17 9 0
17 10 0
18 9 0
18 10 0
17 8 0
17 9 0
18 8 0
18 9 0
16 7 0
16 8 0
17 7 0
17 8 0
14 16 0
14 17 0
16 16 0
16 17 0
14 17 0
14 18 0
16 17 0
16 18 0
14 14 0
14 15 0
15 14 0
15 15 0
15 14 0
15 15 0
16 14 0
16 15 0
14 15 0
14 16 0
15 15 0
15 16 0
15 15 0
15 16 0
16 15 0
16 16 0
14 12 0
14 13 0
15 12 0
15 13 0
14 13 0
14 14 0
15 13 0
15 14 0
15 13 0
15 14 0
16 13 0
16 14 0
15 12 0
15 13 0
16 12 0
16 13 0
14 10 0
14 11 0
15 10 0
15 11 0
14 11 0
14 12 0
15 11 0
15 12 0
15 11 0
15 12 0
16 11 0
16 12 0
15 10 0
15 11 0
16 10 0
16 11 0
14 8 0
14 9 0
15 8 0
15 9 0
14 9 0
14 10 0
15 9 0
15 10 0
15 9 0
15 10 0
16 9 0
16 10 0
15 8 0
15 9 0
16 8 0
16 9 0
15 7 0
15 8 0
16 7 0
16 8 0
12 16 0
12 17 0
13 16 0
13 17 0
13 16 0
13 17 0
14 16 0
14 17 0
12 14 0
12 15 0
13 14 0
13 15 0
12 15 0
12 16 0
13 15 0
13 16 0
13 15 0
13 16 0
14 15 0
14 16 0
13 14 0
13 15 0
14 14 0
14 15 0
12 12 0
12 13 0
13 12 0
13 13 0
12 13 0
12 14 0
13 13 0
13 14 0
13 13 0
13 14 0
14 13 0
14 14 0
13 12 0
13 13 0
14 12 0
14 13 0
12 10 0
12 11 0
13 10 0
13 11 0
12 11 0
12 12 0
13 11 0
13 12 0
13 11 0
13 12 0
14 11 0
14 12 0
13 10 0
13 11 0
14 10 0
14 11 0
12 9 0
12 10 0
13 9 0
13 10 0
13 9 0
13 10 0
14 9 0
14 10 0
11 16 0
11 17 0
12 16 0
12 17 0
11 15 0
11 16 0
12 15 0
12 16 0
11 14 0
11 15 0
12 14 0
12 15 0
11 11 0
11 12 0
12 11 0
12 12 0
11 10 0
11 11 0
12 10 0
12 11 0
11 13 0
11 14 0
12 13 0
12 14 0
11 12 0
11 13 0
12 12 0
12 13 0
12 -12 0
12 -8.16667 0
14 -12 0
14 -8.16667 0
12 -8.16667 0
12 -6 0
14 -8.16667 0
14 -6 0
12 -6 0
12 -4 0
14 -6 0
14 -4 0
12 -4 0
12 -2 0
14 -4 0
14 -2 0
12 -2 0
12 -2.77556e-17 0
14 -2 0
14 -2.77556e-17 0
12 2.77556e-17 0
12 2 0
14 2.77556e-17 0
14 2 0
12 2 0
12 4 0
14 2 0
14 4 0
14 -12 0
14 -8.16667 0
16 -12 0
16 -8.16667 0
14 -8.16667 0
14 -6 0
16 -8.16667 0
16 -6 0
14 -6 0
14 -4 0
16 -6 0
16 -4 0
14 -4 0
14 -2 0
16 -4 0
16 -2 0
14 -2 0
14 -2.77556e-17 0
16 -2 0
16 -2.77556e-17 0
14 2.77556e-17 0
14 2 0
16 2.77556e-17 0
16 2 0
14 2 0
14 4 0
16 2 0
16 4 0
16 -12 0
16 -8.16667 0
18 -12 0
18 -8.16667 0
16 -8.16667 0
16 -6 0
18 -8.16667 0
18 -6 0
16 -6 0
16 -4 0
18 -6 0
18 -4 0
16 -4 0
16 -2 0
18 -4 0
18 -2 0
16 -2 0
16 -2.77556e-17 0
18 -2 0
18 -2.77556e-17 0
16 2.77556e-17 0
16 2 0
18 2.77556e-17 0
18 2 0
16 2 0
16 4 0
18 2 0
18 4 0
18 -12 0
18 -8.16667 0
20 -12 0
20 -8.16667 0
18 -8.16667 0
18 -6 0
20 -8.16667 0
20 -6 0
18 -6 0
18 -4 0
20 -6 0
20 -4 0
18 -4 0
18 -2 0
20 -4 0
20 -2 0
18 -2 0
18 -2.77556e-17 0
20 -2 0
20 -2.77556e-17 0
18 2.77556e-17 0
18 2 0
20 2.77556e-17 0
20 2 0
18 2 0
18 4 0
20 2 0
20 4 0
20 -12 0
20 -8.16667 0
22 -12 0
22 -8.16667 0
20 -8.16667 0
20 -6 0
22 -8.16667 0
22 -6 0
20 -6 0
20 -4 0
22 -6 0
22 -4 0
20 -4 0
20 -2 0
22 -4 0
22 -2 0
20 -2 0
20 -2.77556e-17 0
22 -2 0
22 -2.77556e-17 0
20 2.77556e-17 0
20 2 0
22 2.77556e-17 0
22 2 0
20 2 0
20 4 0
22 2 0
22 4 0
22 -12 0
22 -8.16667 0
24 -12 0
24 -8.16667 0
22 -8.16667 0
22 -6 0
24 -8.16667 0
24 -6 0
22 -6 0
22 -4 0
24 -6 0
24 -4 0
22 -4 0
22 -2 0
24 -4 0
24 -2 0
22 -2 0
22 -2.77556e-17 0
24 -2 0
24 -2.77556e-17 0
22 2.77556e-17 0
22 2 0
24 2.77556e-17 0
24 2 0
22 2 0
22 4 0
24 2 0
24 4 0
24 -8.16667 0
24 -6 0
26 -8.16667 0
26 -6 0
24 -6 0
24 -4 0
26 -6 0
26 -4 0
24 -4 0
24 -2 0
26 -4 0
26 -2 0
24 -2 0
24 -2.77556e-17 0
26 -2 0
26 -2.77556e-17 0
24 2.77556e-17 0
24 2 0
26 2.77556e-17 0
26 2 0
24 2 0
24 4 0
26 2 0
26 4 0
26 -2 0
26 -2.77556e-17 0
28 -2 0
28 -2.77556e-17 0
26 2.77556e-17 0
26 2 0
28 2.77556e-17 0
28 2 0
26 2 0
26 4 0
28 2 0
28 4 0
28 2.77556e-17 0
28 2 0
30 2.77556e-17 0
30 2 0
28 2 0
28 4 0
30 2 0
30 4 0
30 2 0
30 4 0
32 2 0
32 4 0
28 8 0
28 9 0
29 8 0
29 9 0
28 9 0
28 10 0
29 9 0
29 10 0
29 9 0
29 10 0
30 9 0
30 10 0
29 8 0
29 9 0
30 8 0
30 9 0
28 6 0
28 7 0
29 6 0
29 7 0
28 7 0
28 8 0
29 7 0
29 8 0
29 7 0
29 8 0
30 7 0
30 8 0
29 6 0
29 7 0
30 6 0
30 7 0
28 4 0
28 5 0
29 4 0
29 5 0
29 4 0
29 5 0
30 4 0
30 5 0
28 5 0
28 6 0
29 5 0
29 6 0
29 5 0
29 6 0
30 5 0
30 6 0
26 8 0
26 9 0
27 8 0
27 9 0
26 9 0
26 10 0
27 9 0
27 10 0
27 9 0
27 10 0
28 9 0
28 10 0
27 8 0
27 9 0
28 8 0
28 9 0
26 6 0
26 7 0
27 6 0
27 7 0
26 7 0
26 8 0
27 7 0
27 8 0
27 7 0
27 8 0
28 7 0
28 8 0
27 6 0
27 7 0
28 6 0
28 7 0
26 4 0
26 5 0
27 4 0
27 5 0
27 4 0
27 5 0
28 4 0
28 5 0
26 5 0
26 6 0
27 5 0
27 6 0
27 5 0
27 6 0
28 5 0
28 6 0
24 8 0
24 9 0
25 8 0
25 9 0
25 8 0
25 9 0
26 8 0
26 9 0
24 6 0
24 7 0
25 6 0
25 7 0
24 7 0
24 8 0
25 7 0
25 8 0
25 7 0
25 8 0
26 7 0
26 8 0
25 6 0
25 7 0
26 6 0
26 7 0
24 4 0
24 5 0
25 4 0
25 5 0
25 4 0
25 5 0
26 4 0
26 5 0
24 5 0
24 6 0
25 5 0
25 6 0
25 5 0
25 6 0
26 5 0
26 6 0
22 8 0
22 9 0
23 8 0
23 9 0
23 8 0
23 9 0
24 8 0
24 9 0
22 6 0
22 7 0
23 6 0
23 7 0
22 7 0
22 8 0
23 7 0
23 8 0
23 7 0
23 8 0
24 7 0
24 8 0
23 6 0
23 7 0
24 6 0
24 7 0
22 4 0
22 5 0
23 4 0
23 5 0
23 4 0
23 5 0
24 4 0
24 5 0
22 5 0
22 6 0
23 5 0
23 6 0
23 5 0
23 6 0
24 5 0
24 6 0
20 8 0
20 9 0
21 8 0
21 9 0
21 8 0
21 9 0
22 8 0
22 9 0
20 6 0
20 7 0
21 6 0
21 7 0
20 7 0
20 8 0
21 7 0
21 8 0
21 7 0
21 8 0
22 7 0
22 8 0
21 6 0
21 7 0
22 6 0
22 7 0
20 4 0
20 5 0
21 4 0
21 5 0
21 4 0
21 5 0
22 4 0
22 5 0
20 5 0
20 6 0
21 5 0
21 6 0
21 5 0
21 6 0
22 5 0
22 6 0
18 6 0
18 7 0
19 6 0
19 7 0
18 7 0
18 8 0
19 7 0
19 8 0
19 7 0
19 8 0
20 7 0
20 8 0
19 6 0
19 7 0
20 6 0
20 7 0
18 4 0
18 5 0
19 4 0
19 5 0
19 4 0
19 5 0
20 4 0
20 5 0
18 5 0
18 6 0
19 5 0
19 6 0
19 5 0
19 6 0
20 5 0
20 6 0
16 6 0
16 7 0
17 6 0
17 7 0
17 7 0
17 8 0
18 7 0
18 8 0
17 6 0
17 7 0
18 6 0
18 7 0
16 4 0
16 5 0
17 4 0
17 5 0
17 4 0
17 5 0
18 4 0
18 5 0
16 5 0
16 6 0
17 5 0
17 6 0
17 5 0
17 6 0
18 5 0
18 6 0
14 6 0
14 7 0
15 6 0
15 7 0
15 6 0
15 7 0
16 6 0
16 7 0
14 4 0
14 5 0
15 4 0
15 5 0
15 4 0
15 5 0
16 4 0
16 5 0
14 5 0
14 6 0
15 5 0
15 6 0
15 5 0
15 6 0
16 5 0
16 6 0
-12 -12 0
-12 -8.16667 0
-8.16667 -12 0
-8.16667 -8.16667 0
-12 -8.16667 0
-12 -6 0
-8.16667 -8.16667 0
-8.16667 -6 0
-12 -6 0
-12 -4 0
-8.16667 -6 0
-8.16667 -4 0
-12 -4 0
-12 -2 0
-8.16667 -4 0
-8.16667 -2 0
-12 -2 0
-12 0 0
-8.16667 -2 0
-8.16667 0 0
-12 0 0
-12 2 0
-8.16667 0 0
-8.16667 2 0
-12 2 0
-12 4 0
-8.16667 2 0
-8.16667 4 0
-12 4 0
-12 6 0
-8.16667 4 0
-8.16667 6 0
-8.16667 -12 0
-8.16667 -8.16667 0
-6 -12 0
-6 -8.16667 0
-8.16667 -8.16667 0
-8.16667 -6 0
-6 -8.16667 0
-6 -6 0
-8.16667 -6 0
-8.16667 -4 0
-6 -6 0
-6 -4 0
-8.16667 -4 0
-8.16667 -2 0
-6 -4 0
-6 -2 0
-8.16667 -2 0
-8.16667 -2.77556e-17 0
-6 -2 0
-6 -2.77556e-17 0
-8.16667 -1.38778e-17 0
-8.16667 2 0
-6 2.77556e-17 0
-6 2 0
-8.16667 2 0
-8.16667 4 0
-6 2 0
-6 4 0
-8.16667 4 0
-8.16667 6 0
-6 4 0
-6 6 0
-6 -12 0
-6 -8.16667 0
-4 -12 0
-4 -8.16667 0
-6 -8.16667 0
-6 -6 0
-4 -8.16667 0
-4 -6 0
-6 -6 0
-6 -4 0
-4 -6 0
-4 -4 0
-6 -4 0
-6 -2 0
-4 -4 0
-4 -2 0
-6 -2 0
-6 -2.77556e-17 0
-4 -2 0
-4 -2.77556e-17 0
-6 2.77556e-17 0
-6 2 0
-4 2.77556e-17 0
-4 2 0
-6 2 0
-6 4 0
-4 2 0
-4 4 0
-6 4 0
-6 6 0
-4 4 0
-4 6 0
-4 -12 0
-4 -8.16667 0
-2 -12 0
-2 -8.16667 0
-4 -8.16667 0
-4 -6 0
-2 -8.16667 0
-2 -6 0
-4 -6 0
-4 -4 0
-2 -6 0
-2 -4 0
-4 -4 0
-4 -2 0
-2 -4 0
-2 -2 0
-4 -2 0
-4 -2.77556e-17 0
-2 -2 0
-2 -2.77556e-17 0
-4 2.77556e-17 0
-4 2 0
-2 2.77556e-17 0
-2 2 0
-4 2 0
-4 4 0
-2 2 0
-2 4 0
-4 4 0
-4 6 0
-2 4 0
-2 6 0
-2 -12 0
-2 -8.16667 0
0 -12 0
4.16334e-17 -8.16667 0
-2 -8.16667 0
-2 -6 0
-4.16334e-17 -8.16667 0
-5.55112e-17 -6 0
-2 -6 0
-2 -4 0
-2.77556e-17 -6 0
-5.55112e-17 -4 0
-2 -4 0
-2 -2 0
-2.77556e-17 -4 0
-5.55112e-17 -2 0
-2 -2 0
-2 -2.77556e-17 0
-2.77556e-17 -2 0
-5.55112e-17 -2.77556e-17 0
-2 2.77556e-17 0
-2 2 0
-2.77556e-17 2.77556e-17 0
-5.55112e-17 2 0
[...]
POINT_DATA 8020
SCALARS phi float 1
LOOKUP_TABLE default
1.00023
1.00233
1.00144
1.00101
1.00233
1.00033
1.00101
0.999884
0.998875
1.00299
1.00118
1.00266
1.00299
1.00144
1.00266
1.00181
1.00144
1.00101
1.00181
1.00066
1.00101
0.999884
1.00066
0.999923
1.00118
1.00266
0.999929
1.00212
1.00266
1.00181
1.00212
1.00003
1.00181
0.999923
1.00003
1.00026
0.999923
0.999957
1.00026
1.00004
0.999929
1.00003
0.999862
0.999976
1.00003
1.00026
0.999976
0.999864
1.00026
1.00004
0.999864
0.999717
0.999862
0.999976
0.999228
0.999369
0.999976
0.999864
0.999369
1.00091
0.978845
1.00272
0.981506
1.00952
1.00544
0.996354
1.00583
0.999778
1.00583
0.999778
1.00108
0.99906
0.996354
0.999228
0.999778
1.00019
0.999778
1.00019
0.99906
1.00081
0.894011
0.988013
0.925266
0.981845
0.988013
1.00544
0.981845
1.00583
0.981845
1.00583
1.00272
1.00108
0.925266
0.981845
0.978845
1.00272
1.00439
0.999051
1.00548
0.997988
1.00548
0.997988
1.00544
0.996354
0.999051
0.999862
0.997988
0.999356
0.997988
0.999356
0.996354
0.999228
0.893302
0.988074
0.899571
0.985531
0.988074
1.00439
0.985531
1.00548
0.985531
1.00548
0.988013
1.00544
0.899571
0.985531
0.894011
0.988013
0.264811
0.893302
0.268256
0.899571
0.268256
0.899571
0.276238
0.894011
1.00485
0.996308
1.00504
0.997782
1.00504
0.997782
1.00439
0.999051
0.996308
0.999929
0.997782
0.999858
0.997782
0.999858
0.999051
0.999862
0.889148
0.988106
0.894102
0.986793
0.988106
1.00485
0.986793
1.00504
0.986793
1.00504
0.988074
1.00439
0.894102
0.986793
0.893302
0.988074
0.261987
0.889148
0.259243
0.894102
0.259243
0.894102
0.264811
0.893302
1.00123
0.998587
1.00588
0.999579
1.00588
0.999579
1.00485
0.996308
0.998587
1.00118
0.999579
1.00066
0.999579
1.00066
0.996308
0.999929
0.979256
0.999572
0.925483
0.984819
0.999572
1.00123
0.984819
1.00588
0.984819
1.00588
0.988106
1.00485
0.925483
0.984819
0.889148
0.988106
0.753364
0.979256
0.355081
0.925483
0.355081
0.925483
0.261987
0.889148
1.00392
0.990428
0.998451
0.994367
0.998451
0.994367
1.00123
0.998587
0.990428
0.998875
0.994367
1.00053
0.994367
1.00053
0.998587
1.00118
0.978789
0.994983
0.986915
1.00449
0.994983
1.00392
1.00449
0.998451
1.00449
0.998451
0.999572
1.00123
0.986915
1.00449
0.979256
0.999572
0.232151
0.720155
0.277337
0.868299
0.720155
0.978788
0.868299
0.986915
0.868299
0.986915
0.753364
0.979256
0.277337
0.868299
0.151619
0.753364
0.998477
0.999386
0.998875
1.00299
0.999386
1.00023
1.00299
1.00144
0.954772
0.983196
0.991844
0.981263
0.991844
0.981263
1.00392
0.990428
0.983196
0.998477
0.981263
0.997184
0.981263
0.997184
0.990428
0.998875
0.697101
0.905748
0.898361
0.990579
0.905748
0.954772
0.990579
0.991844
0.990579
0.991844
0.994983
1.00392
0.898361
0.990579
0.978788
0.994983
0.0323031
0.263888
0.122337
0.506822
0.263888
0.697101
0.506822
0.898361
0.506822
0.898361
0.720155
0.978789
0.122337
0.506822
0.232151
0.720155
0.00383061
0.0323031
0.0104996
0.122337
0.994294
0.994061
1.00023
1.00233
0.994061
0.999798
1.00233
1.00033
0.994
1.00312
1.00122
1.00174
1.00122
1.00174
0.998477
0.999386
1.00312
0.994294
1.00174
1.00174
1.00174
1.00174
0.999386
1.00023
0.906077
0.989026
0.91907
1.00257
0.989026
0.994
1.00257
1.00122
1.00257
1.00122
0.983196
0.998477
0.91907
1.00257
0.954772
0.983196
0.099455
0.546272
0.282531
0.622969
0.546272
0.906077
0.622969
0.91907
0.622969
0.91907
0.905748
0.954772
0.282531
0.622969
0.697101
0.905748
0.00234638
-0.00948902
0.00646118
0.0394266
-0.00948902
0.099455
0.0394266
0.282531
0.0394266
0.282531
0.263888
0.697101
0.00646118
0.0394266
0.0323031
0.263888
-0.00211527
0.00646118
0.00383061
0.0323031
0.993183
0.996572
0.981478
0.995941
0.981478
0.995941
0.994294
0.994061
0.886561
0.9436
0.986284
0.997555
0.9436
0.993183
0.997555
0.981478
0.997555
0.981478
1.00312
0.994294
0.986284
0.997555
0.994
1.00312
0.438827
0.71125
0.725866
0.969363
0.71125
0.886561
0.969363
0.986284
0.969363
0.986284
0.989026
0.994
0.725866
0.969363
0.906077
0.989026
0.0174572
0.2057
0.1314
0.440578
0.2057
0.438827
0.440578
0.725866
0.440578
0.725866
0.546272
0.906077
0.1314
0.440578
0.099455
0.546272
-0.000479387
0.0174572
-0.0217313
0.1314
-0.0217313
0.1314
-0.00948902
0.099455
0.929747
0.983488
0.993183
0.996572
0.662224
0.929747
0.9436
0.993183
0.527095
0.662224
0.886561
0.9436
0.0442288
0.192892
0.2057
0.438827
0.0122373
0.0442288
0.0174572
0.2057
0.41333
0.527095
0.71125
0.886561
0.192892
0.41333
0.438827
0.71125
5.62937e-06
1.10685e-05
1.7998e-05
1.84708e-05
1.10685e-05
-8.98916e-07
1.84708e-05
-2.64032e-05
-8.98916e-07
-9.32246e-06
-2.64032e-05
4.27476e-05
-9.32247e-06
5.76642e-05
4.27476e-05
-0.000106729
5.76642e-05
3.2796e-05
-0.000106729
0.000106839
3.27959e-05
-9.62515e-05
0.000106839
-7.51738e-05
-9.62515e-05
9.39094e-05
-7.51738e-05
-0.000230144
1.7998e-05
1.84708e-05
-1.33518e-05
-1.33124e-05
1.84708e-05
-2.64032e-05
-1.33124e-05
1.96822e-05
-2.64032e-05
4.27476e-05
1.96822e-05
-3.17944e-05
4.27476e-05
-0.000106729
-3.17944e-05
0.000120002
-0.000106729
0.000106839
0.000120002
-4.91877e-05
0.000106839
-7.51738e-05
-4.91877e-05
-6.22624e-05
-7.51737e-05
-0.000230144
-6.22624e-05
0.000310975
-1.33518e-05
-1.33124e-05
2.12515e-05
4.72981e-05
-1.33124e-05
1.96822e-05
4.72981e-05
5.9685e-06
1.96822e-05
-3.17944e-05
5.9685e-06
-6.22809e-05
-3.17944e-05
0.000120002
-6.22809e-05
0.000121619
0.000120002
-4.91877e-05
0.000121619
-8.6884e-05
-4.91877e-05
-6.22624e-05
-8.6884e-05
0.000172782
-6.22624e-05
0.000310975
0.000172782
-0.000143044
2.12515e-05
4.72981e-05
-2.25305e-06
-1.59937e-05
4.72981e-05
5.9685e-06
-1.59937e-05
-1.64499e-05
5.9685e-06
-6.22809e-05
-1.64499e-05
5.11552e-05
-6.22809e-05
0.000121619
5.11552e-05
-0.000347073
0.000121619
-8.6884e-05
-0.000347073
-0.000150713
-8.6884e-05
0.000172782
-0.000150713
0.000792284
0.000172782
-0.000143044
0.000792284
-0.00103131
-2.25305e-06
-1.59937e-05
-1.16938e-06
1.14733e-05
-1.59937e-05
-1.64499e-05
1.14733e-05
2.05496e-05
-1.64499e-05
5.11552e-05
2.05496e-05
-6.05386e-05
5.11552e-05
-0.000347073
-6.05386e-05
7.76546e-05
-0.000347073
-0.000150713
7.76546e-05
-0.000166067
-0.000150713
0.000792284
-0.000166067
0.000339486
0.000792284
-0.00103131
0.000339486
-0.000140137
-1.16938e-06
1.14733e-05
1.00783e-06
-2.28311e-06
1.14733e-05
2.05496e-05
-2.28311e-06
-6.2114e-06
2.05496e-05
-6.05386e-05
-6.2114e-06
1.49486e-05
-6.05386e-05
7.76546e-05
1.49486e-05
-0.000142168
7.76546e-05
-0.000166067
-0.000142168
-8.21434e-05
-0.000166067
0.000339486
-8.21434e-05
0.000380214
0.000339486
-0.000140137
0.000380214
-0.000466243
-2.28311e-06
-6.21141e-06
5.5166e-06
2.55155e-05
-6.2114e-06
1.49486e-05
2.55155e-05
-6.61459e-05
1.49486e-05
-0.000142168
-6.61459e-05
9.26427e-05
-0.000142168
-8.21434e-05
9.26427e-05
-0.000186392
-8.21434e-05
0.000380214
-0.000186392
0.000358049
0.000380214
-0.000466243
0.000358049
-0.000111079
9.26427e-05
-0.000186392
-0.000445942
-0.000167105
-0.000186392
0.000358049
-0.000167105
0.00102186
0.000358049
-0.000111079
0.00102186
-0.00145932
-0.000167105
0.00102186
0.000268812
-0.000299528
0.00102186
-0.00145932
-0.000299528
-0.000385318
-0.000299528
-0.000385317
2.87667e-05
0.000194845
0.177738
0.803596
0.357068
0.905602
0.803596
0.978845
0.905602
0.981506
0.905602
0.981506
0.74646
0.977636
0.357068
0.905602
0.314191
0.74646
-0.0031444
0.0144162
0.00422613
0.0201288
0.0144162
0.177738
0.0201288
0.357068
0.0201288
0.357068
0.0339273
0.314191
0.00422613
0.0201288
0.00174439
0.0339273
-0.00145932
0.00013847
-0.00113812
0.00107806
-0.00113812
0.00107806
-0.000385317
-0.00276972
0.00013847
-0.00314441
0.00107806
0.00422613
0.00107806
0.00422613
-0.00276972
0.00174439
0.0167213
0.276238
-0.000610241
0.33135
0.276238
0.894012
0.33135
0.925266
0.33135
0.925266
0.803596
0.978845
-0.000610242
0.33135
0.177738
0.803596
-0.00155441
0.00253359
-0.0033483
0.00708234
0.00253359
0.0167213
0.00708234
-0.000610246
0.00708234
-0.000610241
0.0144162
0.177738
-0.0033483
0.00708233
-0.0031444
0.0144162
-0.000111079
0.00162713
-0.000823055
0.000795342
-0.000823055
0.000795342
-0.00145932
0.00013847
0.00162713
-0.00155441
0.000795342
-0.0033483
0.000795342
-0.0033483
0.00013847
-0.0031444
0.0115375
0.264811
0.0041496
0.268256
0.0041496
0.268256
0.0167213
0.276238
-0.0010205
0.00213327
-0.00171965
0.00353043
0.00213327
0.0115375
0.00353042
0.00414961
0.00353043
0.0041496
0.00253359
0.0167213
-0.00171965
0.00353042
-0.00155441
0.00253359
-0.000466243
0.000354955
-0.000191004
0.000386314
-0.000191004
0.000386314
-0.000111079
0.00162713
0.000354955
-0.0010205
0.000386314
-0.00171965
0.000386314
-0.00171965
0.00162713
-0.00155441
0.0116953
0.261987
0.0058953
0.259243
0.0058953
0.259243
0.0115375
0.264811
-0.0012326
0.00174868
-0.00146068
0.00309718
0.00174868
0.0116953
0.00309718
0.0058953
0.00309718
0.0058953
0.00213327
0.0115375
-0.00146068
0.00309718
-0.0010205
0.00213327
-0.000140137
0.00143332
-0.000272671
0.000518871
-0.000272671
0.000518871
-0.000466243
0.000354955
0.00143332
-0.0012326
0.000518871
-0.00146068
0.000518871
-0.00146068
0.000354955
-0.0010205
0.151619
0.753364
0.0146878
0.355081
0.0146878
0.355081
0.0116953
0.261987
-0.00183579
0.008165
-0.00327776
0.00773307
0.008165
0.151619
0.00773307
0.0146878
0.00773307
0.0146878
0.00174868
0.0116953
-0.00327776
0.00773307
-0.0012326
0.00174868
-0.00103131
0.0008098
-0.000604458
0.000230206
-0.000604458
0.000230206
-0.000140137
0.00143332
0.0008098
-0.00183579
0.000230206
-0.00327776
0.000230206
-0.00327776
0.00143332
-0.0012326
-0.00343615
0.0210287
-0.0012408
0.0177501
0.0210287
0.232151
0.0177501
0.277337
0.0177501
0.277337
0.008165
0.151619
-0.0012408
0.0177501
-0.00183579
0.008165
-0.000143044
-1.1348e-06
-0.00075356
0.00135608
-0.00075356
0.00135608
-0.00103131
0.0008098
-1.1348e-06
-0.00343615
0.00135608
-0.0012408
0.00135608
-0.0012408
0.0008098
-0.00183579
-0.00104637
0.00383061
-0.00158156
0.0104996
0.0104996
0.122337
0.0210287
0.232151
-0.00158156
0.0104996
-0.00343615
0.0210287
0.000310975
0.000272275
0.000263792
0.000447109
0.000263792
0.000447109
-0.000143044
-1.13476e-06
0.000272275
-0.00104637
0.000447109
-0.00158156
0.000447109
-0.00158156
-1.13475e-06
-0.00343615
0.000997357
-0.00448315
0.000918408
-0.00211527
0.000918408
-0.00211527
-0.00104637
0.00383061
-0.000230144
-0.00112103
2.35096e-05
3.4796e-05
2.35096e-05
3.4796e-05
0.000310975
0.000272275
-0.00112103
0.000997357
3.47961e-05
0.000918408
3.47961e-05
0.000918408
0.000272275
-0.00104637
-6.89281e-09
-3.95266e-08
-6.87521e-09
-2.5746e-08
-3.95266e-08
-3.90204e-08
-2.5746e-08
-1.87874e-08
-3.90204e-08
1.3228e-07
-1.87874e-08
7.34169e-08
1.3228e-07
-2.42664e-07
7.3417e-08
6.29528e-08
-2.42664e-07
2.6318e-07
6.29528e-08
3.80772e-07
2.6318e-07
-4.77482e-07
3.80772e-07
-1.03105e-06
-4.77482e-07
8.98174e-07
-1.03105e-06
2.11277e-06
8.98174e-07
-1.28548e-06
2.11277e-06
-1.28439e-06
-6.87521e-09
-2.5746e-08
9.69953e-09
8.22872e-08
-2.5746e-08
-1.87874e-08
8.22872e-08
9.30531e-08
-1.87874e-08
7.3417e-08
9.30531e-08
-3.00296e-07
7.3417e-08
6.29528e-08
-3.00297e-07
8.21673e-07
6.29529e-08
3.80772e-07
8.21673e-07
-2.87419e-07
3.80772e-07
-1.03105e-06
-2.87419e-07
6.07484e-08
-1.03105e-06
2.11277e-06
6.07484e-08
1.11393e-07
2.11277e-06
-1.28439e-06
1.11393e-07
2.18594e-06
9.69953e-09
8.22872e-08
-1.51607e-08
-1.64996e-07
8.22872e-08
9.30531e-08
-1.64996e-07
-1.97413e-07
9.30531e-08
-3.00297e-07
-1.97413e-07
6.24303e-07
-3.00296e-07
8.21673e-07
6.24303e-07
-2.02283e-06
8.21673e-07
-2.87419e-07
-2.02283e-06
2.49314e-07
-2.8742e-07
6.07484e-08
2.49314e-07
1.04653e-06
6.07483e-08
1.11393e-07
1.04653e-06
-2.73781e-06
1.11393e-07
2.18594e-06
-2.73781e-06
-3.60177e-06
-1.51607e-08
-1.64996e-07
2.66362e-08
3.08117e-07
-1.64996e-07
-1.97413e-07
3.08117e-07
3.72916e-07
-1.97413e-07
6.24303e-07
3.72916e-07
-1.17802e-06
6.24303e-07
-2.02283e-06
-1.17802e-06
3.70049e-06
-2.02283e-06
2.49314e-07
3.70049e-06
-6.4533e-07
2.49314e-07
1.04653e-06
-6.4533e-07
-1.44172e-06
1.04653e-06
-2.73781e-06
-1.44172e-06
4.12752e-06
-2.73781e-06
-3.60177e-06
4.12752e-06
9.9394e-06
2.66362e-08
3.08117e-07
-4.88327e-08
-4.75896e-07
3.08117e-07
3.72916e-07
-4.75896e-07
-5.53517e-07
3.72916e-07
-1.17802e-06
-5.53518e-07
1.76746e-06
-1.17802e-06
3.70049e-06
1.76746e-06
-5.5212e-06
3.70049e-06
-6.4533e-07
-5.5212e-06
1.00868e-06
-6.4533e-07
-1.44172e-06
1.00868e-06
1.98503e-06
-1.44172e-06
4.12752e-06
1.98503e-06
-5.62084e-06
4.12752e-06
9.9394e-06
-5.62084e-06
-7.92749e-06
-4.88327e-08
-4.75896e-07
3.70491e-07
1.69704e-06
-4.75896e-07
-5.53518e-07
1.69704e-06
1.36294e-06
-5.53517e-07
1.76746e-06
1.36294e-06
-4.91296e-06
1.76746e-06
-5.5212e-06
-4.91296e-06
1.54047e-05
-5.52119e-06
1.00868e-06
1.54047e-05
-2.60244e-06
1.00868e-06
1.98503e-06
-2.60244e-06
-5.45014e-06
1.98503e-06
-5.62084e-06
-5.45014e-06
1.55835e-05
-5.62084e-06
-7.92749e-06
1.55835e-05
1.30215e-05
3.70491e-07
1.69704e-06
5.32096e-07
-4.02704e-07
1.69704e-06
1.36294e-06
-4.02704e-07
-2.15518e-06
1.36294e-06
-4.91296e-06
-2.15518e-06
5.35775e-06
-4.91296e-06
1.54047e-05
5.35775e-06
-2.0324e-05
1.54047e-05
-2.60244e-06
-2.0324e-05
8.99431e-07
-2.60244e-06
-5.45014e-06
8.99431e-07
1.57264e-05
-5.45014e-06
1.55835e-05
1.57264e-05
-4.30383e-05
1.55835e-05
1.30215e-05
-4.30383e-05
7.58736e-06
1.30215e-05
-2.34801e-05
7.58736e-06
0.000138727
-2.34801e-05
-2.2134e-05
0.000138727
0.000260612
5.32096e-07
-4.02704e-07
-4.15721e-07
-3.41593e-07
-4.02704e-07
-2.15518e-06
-3.41593e-07
7.35207e-07
-2.15518e-06
5.35775e-06
7.35207e-07
-1.32839e-06
5.35775e-06
-2.0324e-05
-1.32839e-06
6.01997e-06
-2.0324e-05
8.9943e-07
6.01997e-06
6.45246e-07
8.99432e-07
1.57264e-05
6.45246e-07
-8.22588e-06
1.57264e-05
-4.30383e-05
-8.22588e-06
-4.1317e-07
-4.30383e-05
7.58735e-06
-4.1317e-07
0.000110136
7.58736e-06
0.000138727
0.000110136
0.000386034
0.000138727
0.000260612
0.000386034
0.000441798
-4.15721e-07
-3.41593e-07
5.8874e-07
-1.04368e-06
-3.41593e-07
7.35207e-07
-1.04368e-06
-3.24681e-06
7.35207e-07
-1.32839e-06
-3.24681e-06
8.80729e-06
-1.32839e-06
6.01997e-06
8.8073e-06
-2.01997e-05
6.01997e-06
6.45245e-07
-2.01997e-05
1.61085e-05
6.45245e-07
-8.22588e-06
1.61085e-05
-1.73272e-05
-8.22588e-06
-4.13168e-07
-1.73272e-05
1.52159e-05
-4.1317e-07
-1.29139e-07
1.52159e-05
-0.000130641
-1.29139e-07
0.000110136
-0.000130641
0.000153788
5.8874e-07
-1.04368e-06
-1.34869e-06
-4.6577e-06
-1.04368e-06
-3.24681e-06
-4.6577e-06
-2.78424e-06
-3.24681e-06
8.8073e-06
-2.78424e-06
1.14946e-05
8.8073e-06
-2.01997e-05
1.14946e-05
-1.54642e-05
-2.01997e-05
1.61085e-05
-1.54642e-05
3.06361e-05
1.61085e-05
-1.73272e-05
3.06361e-05
-6.03412e-05
-1.73272e-05
1.52159e-05
-6.03413e-05
0.000118679
1.52159e-05
-0.000130642
0.000118679
-6.65622e-05
-0.000130642
0.000153788
-6.65622e-05
0.000213998
-1.34869e-06
-4.6577e-06
5.62937e-06
1.10685e-05
-4.6577e-06
-2.78424e-06
1.10685e-05
-8.98918e-07
-2.78424e-06
1.14946e-05
-8.98916e-07
-9.32247e-06
1.14946e-05
-1.54642e-05
-9.32246e-06
5.76642e-05
-1.54642e-05
3.06361e-05
5.76642e-05
3.27959e-05
3.06361e-05
-6.03413e-05
3.27959e-05
-9.62515e-05
-6.03413e-05
0.000118679
-9.62515e-05
9.39094e-05
-0.00448315
0.00234638
-0.00211527
0.00646118
0.000110136
0.000386034
0.000153788
0.000350199
0.000386034
0.000441798
0.000350199
0.0002306
0.000441798
3.54009e-05
0.0002306
-0.000374754
-0.000125214
-0.000479389
0.00950594
-0.0217313
0.00950594
-0.0217313
0.00234638
-0.00948902
2.60116e-05
-0.00232578
0.00141828
-0.00486163
-0.00232578
-0.000125214
-0.00486163
0.00950594
-0.00486163
0.00950594
-0.00448315
0.00234638
0.00141828
-0.00486163
0.000997357
-0.00448315
9.39095e-05
-0.000558616
-0.000131583
-0.000507029
-0.000131583
-0.000507029
-0.000230144
-0.00112103
-0.000558616
2.60117e-05
-0.000507029
0.00141828
-0.000507029
0.00141828
-0.00112103
0.000997357
0.000153788
0.000350199
0.00031655
2.34358e-05
0.00031655
2.34358e-05
0.000213998
-0.000664063
0.000350199
0.0002306
2.34358e-05
0.000542106
2.34358e-05
0.000542106
-0.000664063
-0.000783848
0.0002306
-0.000374754
0.000542106
-0.0034814
-0.0034814
0.00182267
0.00122419
-0.00652495
0.000542106
-0.0034814
-0.000783848
0.00122419
0.000118679
-6.65622e-05
9.39095e-05
-0.000558616
-6.65622e-05
0.000213998
-0.000558616
2.60115e-05
0.000213998
-0.000664063
-0.000293214
0.00177725
-0.000293214
0.00177725
2.60115e-05
-0.00232578
-0.000664063
-0.000783848
0.00177725
0.000329758
0.00177725
0.000329758
-0.00232578
-0.000125214
-0.000783849
0.00122419
0.000329758
-0.00400464
0.00122419
-0.00652495
-0.00400464
0.0122373
-0.00400464
0.0122373
-0.000479388
0.0174572
0.000329758
-0.00400464
-0.000125214
-0.000479389
-1.28548e-06
3.00257e-06
-1.28439e-06
3.83069e-06
3.00257e-06
-5.12771e-06
3.83069e-06
-8.65073e-06
-5.12771e-06
4.28148e-06
-8.65073e-06
7.30412e-06
4.28148e-06
-5.60714e-05
7.30412e-06
-8.69932e-05
-5.60714e-05
6.34927e-05
-8.69932e-05
9.7466e-05
6.34927e-05
6.23455e-05
9.7466e-05
-2.138e-05
6.23455e-05
-3.12838e-05
-2.138e-05
-0.000160394
-1.28439e-06
3.83069e-06
2.18594e-06
-3.9204e-06
3.83069e-06
-8.65073e-06
-3.9204e-06
3.65302e-06
-8.65073e-06
7.30412e-06
3.65302e-06
-2.99051e-06
7.30412e-06
-8.69932e-05
-2.99052e-06
4.53877e-05
-8.69932e-05
9.7466e-05
4.53877e-05
-5.33805e-05
9.7466e-05
-2.138e-05
-5.33805e-05
-0.00021228
-2.138e-05
-0.000160394
-0.00021228
-0.000124519
2.18594e-06
-3.9204e-06
-3.60177e-06
4.85331e-06
-3.9204e-06
3.65302e-06
4.85331e-06
1.00233e-06
3.65302e-06
-2.99052e-06
1.00233e-06
-1.31417e-06
-2.99052e-06
4.53877e-05
-1.31417e-06
-1.09738e-05
4.53877e-05
-5.33805e-05
-1.09738e-05
1.9181e-05
-5.33805e-05
-0.00021228
1.9181e-05
0.00052822
-0.00021228
-0.000124519
0.00052822
0.000484337
-3.60177e-06
4.85331e-06
9.9394e-06
-1.06173e-05
4.85331e-06
1.00233e-06
-1.06173e-05
-3.43991e-06
1.00233e-06
-1.31417e-06
-3.43991e-06
-8.13825e-07
-1.31417e-06
-1.09738e-05
-8.13823e-07
1.80832e-05
-1.09738e-05
1.9181e-05
1.80832e-05
2.65617e-05
1.9181e-05
0.00052822
2.65617e-05
-0.00112861
0.00052822
0.000484337
-0.00112861
-0.000811532
9.9394e-06
-1.06173e-05
-7.92749e-06
1.69916e-05
-1.06173e-05
-3.43991e-06
1.69916e-05
-1.24681e-05
-3.43991e-06
-8.13823e-07
-1.24681e-05
1.67346e-06
-8.13823e-07
1.80832e-05
1.67346e-06
-0.000160139
1.80832e-05
2.65616e-05
-0.000160139
0.000261779
2.65617e-05
-0.00112861
0.000261779
0.00125176
-0.00112861
-0.000811532
0.00125176
0.00119009
-0.000811532
-0.000305774
0.00119009
0.00072183
-7.92749e-06
1.69916e-05
1.30215e-05
-2.2134e-05
1.69916e-05
-1.24681e-05
-2.2134e-05
-1.73113e-06
-1.24681e-05
1.159e-05
-1.73113e-06
-0.000214831
1.159e-05
1.67346e-06
-0.000214831
-0.000117429
1.67346e-06
-9.31175e-05
-0.000117429
0.000108261
-9.31175e-05
-0.000160139
0.000108261
7.31873e-05
-0.000160139
-6.35426e-05
7.31873e-05
0.000212838
-6.35426e-05
0.000261779
0.000212838
-0.00082758
0.000261779
0.000796185
-0.00082758
-0.00115306
0.000796185
0.00125176
-0.00115306
-0.00184229
0.00125176
0.00135895
-0.00184229
-0.00288075
0.00135895
0.00119009
-0.00288075
-0.00206819
0.00119009
0.000911237
-0.00206819
-0.00182702
0.000911237
0.00072183
-0.00182702
-0.00144868
-2.2134e-05
4.47439e-05
0.000260612
-5.24522e-05
4.47439e-05
-1.73113e-06
-5.24522e-05
0.00014621
-1.73113e-06
-0.000214831
0.00014621
-0.000893488
-0.000214831
-0.000117429
-0.000893488
-0.00027413
-0.000117429
0.000108261
-0.00027413
-0.000706711
0.000108261
7.31873e-05
-0.000706711
-0.000790618
7.31873e-05
0.000212838
-0.000790618
8.25477e-05
0.000212838
-0.00082758
8.25477e-05
0.00054507
-0.00082758
-0.00115306
0.00054507
0.00200086
-0.00115306
-0.00184229
0.00200086
0.00313602
-0.00184229
-0.00288075
0.00313602
0.00386731
-0.00288075
-0.00206819
0.00386731
0.00444712
-0.00206819
-0.00182702
0.00444712
0.00322096
-0.00182702
-0.00144868
0.00322096
0.00249679
0.000260612
-5.24522e-05
0.000441798
3.5401e-05
-5.24522e-05
0.00014621
3.5401e-05
0.0003041
0.00014621
-0.000893488
0.0003041
-0.000537293
-0.000893488
-0.00027413
-0.000537293
-0.000400146
-0.00027413
-0.000706711
-0.000400146
0.000318173
-0.000706711
-0.000790619
0.000318173
0.000334753
-0.000790618
8.25477e-05
0.000334753
0.000304266
8.25476e-05
0.00054507
0.000304267
0.000420128
0.000545069
0.00200086
0.000420128
0.000414182
0.00200086
0.00313602
0.000414182
-0.000461127