# vtk DataFile Version 2.0
Hex test
ASCII
DATASET UNSTRUCTURED_GRID
POINTS 6544 float
-6 34 0
-6 36 0
-2.16667 34 0
-2.16667 36 0
-6 36 0
-6 38 0
-2.16667 36 0
-2.16667 38 0
-6 38 0
-6 40 0
-2.16667 38 0
-2.16667 40 0
-6 40 0
-6 42 0
-2.16667 40 0
-2.16667 42 0
-6 42 0
-6 44.1667 0
-2.16667 42 0
-2.16667 44.1667 0
-6 44.1667 0
-6 48 0
-2.16667 44.1667 0
-2.16667 48 0
-2.16667 34 0
-2.16667 36 0
-2.77556e-17 34 0
-5.55112e-17 36 0
-2.16667 36 0
-2.16667 38 0
-2.77556e-17 36 0
-5.55112e-17 38 0
-2.16667 38 0
-2.16667 40 0
-2.77556e-17 38 0
-5.55112e-17 40 0
-2.16667 40 0
-2.16667 42 0
-2.77556e-17 40 0
-5.55112e-17 42 0
-2.16667 42 0
-2.16667 44.1667 0
-2.77556e-17 42 0
-1.38778e-17 44.1667 0
-2.16667 44.1667 0
-2.16667 48 0
2.77556e-17 44.1667 0
0 48 0
2.77556e-17 34 0
2.42861e-17 35 0
2 34 0
2 35 0
2.42861e-17 35 0
2.77556e-17 36 0
2 35 0
2 36 0
2.77556e-17 36 0
2.42861e-17 37 0
2 36 0
2 37 0
2.42861e-17 37 0
2.77556e-17 38 0
2 37 0
2 38 0
2.77556e-17 38 0
2.77556e-17 40 0
2 38 0
2 40 0
2.77556e-17 40 0
2.77556e-17 42 0
2 40 0
2 42 0
2.77556e-17 42 0
0 44.1667 0
2 42 0
2 44.1667 0
-1.38778e-17 44.1667 0
0 48 0
2 44.1667 0
2 48 0
2 34 0
2 35 0
4 34 0
4 35 0
2 35 0
2 36 0
4 35 0
4 36 0
2 36 0
2 37 0
4 36 0
4 37 0
2 37 0
2 38 0
4 37 0
4 38 0
2 38 0
2 39 0
4 38 0
4 39 0
2 39 0
2 40 0
4 39 0
4 40 0
2 40 0
2 41 0
4 40 0
4 41 0
2 41 0
2 42 0
4 41 0
4 42 0
2 42 0
2 44.1667 0
4 42 0
4 44.1667 0
2 44.1667 0
2 48 0
4 44.1667 0
4 48 0
4 38 0
4 39 0
6 38 0
6 39 0
4 39 0
4 40 0
6 39 0
6 40 0
4 40 0
4 41 0
6 40 0
6 41 0
4 41 0
4 42 0
6 41 0
6 42 0
4 42 0
4 43.0208 0
6 42 0
6 43.0208 0
4 43.0208 0
4 44.1667 0
6 43.0208 0
6 44.1667 0
4 44.1667 0
4 45.6458 0
6 44.1667 0
6 45.6458 0
4 45.6458 0
4 48 0
6 45.6458 0
6 48 0
6 42 0
6 43.0208 0
8 42 0
8 43.0208 0
6 43.0208 0
6 44.1667 0
8 43.0208 0
8 44.1667 0
6 44.1667 0
6 45.6458 0
8 44.1667 0
8 45.6458 0
6 45.6458 0
6 48 0
8 45.6458 0
8 48 0
4 34 0
4 35 0
6 34 0
6 35 0
4 35 0
4 36 0
6 35 0
6 36 0
4 36 0
4 37 0
6 36 0
6 37 0
4 37 0
4 38 0
6 37 0
6 38 0
6 34 0
6 35 0
7 34 0
7 35 0
6 35 0
6 36 0
7 35 0
7 36 0
7 35 0
7 36 0
8 35 0
8 36 0
7 34 0
7 35 0
8 34 0
8 35 0
6 36 0
6 37 0
7 36 0
7 37 0
7 36 0
7 37 0
8 36 0
8 37 0
6 37 0
6 38 0
7 37 0
7 38 0
7 37 0
7 38 0
8 37 0
8 38 0
6 38 0
6 39 0
8 38 0
8 39 0
6 39 0
6 40 0
8 39 0
8 40 0
6 40 0
6 41 0
8 40 0
8 41 0
6 41 0
6 42 0
8 41 0
8 42 0
8 33 0
8 34 0
9 33 0
9 34 0
8 34 0
8 35 0
9 34 0
9 35 0
8 35 0
8 36 0
9 35 0
9 36 0
9 35 0
9 36 0
10 35 0
10 36 0
9 34 0
9 35 0
10 34 0
10 35 0
8 36 0
8 37 0
9 36 0
9 37 0
8 37 0
8 38 0
9 37 0
9 38 0
9 37 0
9 38 0
10 37 0
10 38 0
9 36 0
9 37 0
10 36 0
10 37 0
8 38 0
8 39 0
9 38 0
9 39 0
8 39 0
8 40 0
9 39 0
9 40 0
9 39 0
9 40 0
10 39 0
10 40 0
9 38 0
9 39 0
10 38 0
10 39 0
8 40 0
8 41 0
9 40 0
9 41 0
9 40 0
9 41 0
10 40 0
10 41 0
8 41 0
8 42 0
9 41 0
9 42 0
9 41 0
9 42 0
10 41 0
10 42 0
8 42 0
8 43.0208 0
10 42 0
10 43.0208 0
8 43.0208 0
8 44.1667 0
10 43.0208 0
10 44.1667 0
8 44.1667 0
8 45.6458 0
10 44.1667 0
10 45.6458 0
8 45.6458 0
8 48 0
10 45.6458 0
10 48 0
10 34 0
10 35 0
11 34 0
11 35 0
10 35 0
10 36 0
11 35 0
11 36 0
10 36 0
10 37 0
11 36 0
11 37 0
10 37 0
10 38 0
11 37 0
11 38 0
11 37 0
11 38 0
12 37 0
12 38 0
11 36 0
11 37 0
12 36 0
12 37 0
10 38 0
10 39 0
11 38 0
11 39 0
10 39 0
10 40 0
11 39 0
11 40 0
11 39 0
11 40 0
12 39 0
12 40 0
11 38 0
11 39 0
12 38 0
12 39 0
10 40 0
10 41 0
11 40 0
11 41 0
10 41 0
10 42 0
11 41 0
11 42 0
11 41 0
11 42 0
12 41 0
12 42 0
11 40 0
11 41 0
12 40 0
12 41 0
10 42 0
10 43.0208 0
11 42 0
11 43.0208 0
12 37 0
12 38 0
13 37 0
13 38 0
12 38 0
12 39 0
13 38 0
13 39 0
12 39 0
12 40 0
13 39 0
13 40 0
13 38 0
13 39 0
14 38 0
14 39 0
12 40 0
12 41 0
13 40 0
13 41 0
-6 24 0
-6 26 0
-2.16667 24 0
-2.16667 26 0
-6 26 0
-6 28 0
-2.16667 26 0
-2.16667 28 0
-6 28 0
-6 30 0
-2.16667 28 0
-2.16667 30 0
-6 30 0
-6 32 0
-2.16667 30 0
-2.16667 32 0
-6 32 0
-6 34 0
-2.16667 32 0
-2.16667 34 0
-2.16667 24 0
-2.16667 26 0
-2.77556e-17 24 0
-5.55112e-17 26 0
-2.16667 26 0
-2.16667 28 0
-2.77556e-17 26 0
-5.55112e-17 28 0
-2.16667 28 0
-2.16667 30 0
-2.77556e-17 28 0
-5.55112e-17 30 0
-2.16667 30 0
-2.16667 32 0
-2.77556e-17 30 0
-5.55112e-17 32 0
-2.16667 32 0
-2.16667 34 0
-2.77556e-17 32 0
-5.55112e-17 34 0
2.77556e-17 24 0
2.42861e-17 25 0
2 24 0
2 25 0
2.42861e-17 25 0
2.77556e-17 26 0
2 25 0
2 26 0
2.77556e-17 26 0
2.42861e-17 27 0
2 26 0
2 27 0
2.42861e-17 27 0
2.77556e-17 28 0
2 27 0
2 28 0
2.77556e-17 28 0
2.42861e-17 29 0
2 28 0
2 29 0
2.42861e-17 29 0
2.77556e-17 30 0
2 29 0
2 30 0
2.77556e-17 30 0
2.42861e-17 31 0
2 30 0
2 31 0
2.42861e-17 31 0
2.77556e-17 32 0
2 31 0
2 32 0
2.77556e-17 32 0
2.42861e-17 33 0
2 32 0
2 33 0
2.42861e-17 33 0
2.77556e-17 34 0
2 33 0
2 34 0
2 24 0
2 25 0
4 24 0
4 25 0
2 25 0
2 26 0
4 25 0
4 26 0
2 26 0
2 27 0
4 26 0
4 27 0
2 27 0
2 28 0
4 27 0
4 28 0
2 28 0
2 29 0
4 28 0
4 29 0
2 29 0
2 30 0
4 29 0
4 30 0
2 30 0
2 31 0
4 30 0
4 31 0
2 31 0
2 32 0
4 31 0
4 32 0
2 32 0
2 33 0
4 32 0
4 33 0
2 33 0
2 34 0
4 33 0
4 34 0
4 24 0
4 25 0
6 24 0
6 25 0
4 25 0
4 26 0
6 25 0
6 26 0
4 26 0
4 27 0
6 26 0
6 27 0
4 27 0
4 28 0
6 27 0
6 28 0
4 28 0
4 29 0
6 28 0
6 29 0
4 29 0
4 30 0
6 29 0
6 30 0
4 30 0
4 31 0
6 30 0
6 31 0
4 31 0
4 32 0
6 31 0
6 32 0
4 32 0
4 33 0
6 32 0
6 33 0
4 33 0
4 34 0
6 33 0
6 34 0
6 23 0
6 24 0
7 23 0
7 24 0
7 23 0
7 24 0
8 23 0
8 24 0
6 24 0
6 25 0
7 24 0
7 25 0
6 25 0
6 26 0
7 25 0
7 26 0
7 25 0
7 26 0
8 25 0
8 26 0
7 24 0
7 25 0
8 24 0
8 25 0
6 26 0
6 27 0
7 26 0
7 27 0
6 27 0
6 28 0
7 27 0
7 28 0
7 27 0
7 28 0
8 27 0
8 28 0
7 26 0
7 27 0
8 26 0
8 27 0
6 28 0
6 29 0
7 28 0
7 29 0
6 29 0
6 30 0
7 29 0
7 30 0
7 29 0
7 30 0
8 29 0
8 30 0
7 28 0
7 29 0
8 28 0
8 29 0
6 30 0
6 31 0
7 30 0
7 31 0
6 31 0
6 32 0
7 31 0
7 32 0
7 31 0
7 32 0
8 31 0
8 32 0
7 30 0
7 31 0
8 30 0
8 31 0
6 32 0
6 33 0
7 32 0
7 33 0
6 33 0
6 34 0
7 33 0
7 34 0
7 33 0
7 34 0
8 33 0
8 34 0
7 32 0
7 33 0
8 32 0
8 33 0
8 22 0
8 23 0
9 22 0
9 23 0
8 23 0
8 24 0
9 23 0
9 24 0
9 23 0
9 24 0
10 23 0
10 24 0
9 22 0
9 23 0
10 22 0
10 23 0
8 24 0
8 25 0
9 24 0
9 25 0
8 25 0
8 26 0
9 25 0
9 26 0
9 25 0
9 26 0
10 25 0
10 26 0
9 24 0
9 25 0
10 24 0
10 25 0
8 26 0
8 27 0
9 26 0
9 27 0
8 27 0
8 28 0
9 27 0
9 28 0
9 27 0
9 28 0
10 27 0
10 28 0
9 26 0
9 27 0
10 26 0
10 27 0
8 28 0
8 29 0
9 28 0
9 29 0
8 29 0
8 30 0
9 29 0
9 30 0
9 29 0
9 30 0
10 29 0
10 30 0
9 28 0
9 29 0
10 28 0
10 29 0
8 30 0
8 31 0
9 30 0
9 31 0
8 31 0
8 32 0
9 31 0
9 32 0
9 31 0
9 32 0
10 31 0
10 32 0
9 30 0
9 31 0
10 30 0
10 31 0
8 32 0
8 33 0
9 32 0
9 33 0
9 33 0
9 34 0
10 33 0
10 34 0
9 32 0
9 33 0
10 32 0
10 33 0
10 23 0
10 24 0
11 23 0
11 24 0
10 24 0
10 25 0
11 24 0
11 25 0
10 25 0
10 26 0
11 25 0
11 26 0
11 25 0
11 26 0
12 25 0
12 26 0
11 24 0
11 25 0
12 24 0
12 25 0
10 26 0
10 27 0
11 26 0
11 27 0
10 27 0
10 28 0
11 27 0
11 28 0
11 27 0
11 28 0
12 27 0
12 28 0
11 26 0
11 27 0
12 26 0
12 27 0
10 28 0
10 29 0
11 28 0
11 29 0
10 29 0
10 30 0
11 29 0
11 30 0
11 28 0
11 29 0
12 28 0
12 29 0
10 30 0
10 31 0
11 30 0
11 31 0
10 31 0
10 32 0
11 31 0
11 32 0
10 32 0
10 33 0
11 32 0
11 33 0
14 26 0
14 27 0
16 26 0
16 27 0
14 27 0
14 28 0
16 27 0
16 28 0
14 28 0
14 29 0
16 28 0
16 29 0
14 29 0
14 30 0
16 29 0
16 30 0
16 26 0
16 27 0
18 26 0
18 27 0
16 27 0
16 28 0
18 27 0
18 28 0
16 28 0
16 29 0
18 28 0
18 29 0
16 29 0
16 30 0
18 29 0
18 30 0
16 30 0
16 31 0
18 30 0
18 31 0
16 31 0
16 32 0
18 31 0
18 32 0
16 32 0
16 33 0
18 32 0
18 33 0
16 33 0
16 34 0
18 33 0
18 34 0
18 26 0
18 28 0
20 26 0
20 28 0
18 28 0
18 30 0
20 28 0
20 30 0
18 30 0
18 31 0
20 30 0
20 31 0
18 31 0
18 32 0
20 31 0
20 32 0
18 32 0
18 33 0
20 32 0
20 33 0
18 33 0
18 34 0
20 33 0
20 34 0
18 34 0
18 35 0
20 34 0
20 35 0
18 35 0
18 36 0
20 35 0
20 36 0
20 26 0
20 28 0
22 26 0
22 28 0
20 28 0
20 30 0
22 28 0
22 30 0
20 30 0
20 32 0
22 30 0
22 32 0
20 32 0
20 34 0
22 32 0
22 34 0
20 34 0
20 35 0
22 34 0
22 35 0
20 35 0
20 36 0
22 35 0
22 36 0
22 24 0
22 26 0
24 24 0
24 26 0
22 26 0
22 28 0
24 26 0
24 28 0
22 28 0
22 30 0
24 28 0
24 30 0
22 30 0
22 32 0
24 30 0
24 32 0
22 32 0
22 34 0
24 32 0
24 34 0
22 34 0
22 36 0
24 34 0
24 36 0
24 26 0
24 28 0
26 26 0
26 28 0
24 30 0
24 32 0
26 30 0
26 32 0
24 32 0
24 34 0
26 32 0
26 34 0
24 34 0
24 36 0
26 34 0
26 36 0
11 29 0
11 30 0
12 29 0
12 30 0
11 31 0
11 32 0
12 31 0
12 32 0
11 30 0
11 31 0
12 30 0
12 31 0
10 33 0
10 34 0
11 33 0
11 34 0
11 33 0
11 34 0
12 33 0
12 34 0
11 32 0
11 33 0
12 32 0
12 33 0
11 35 0
11 36 0
12 35 0
12 36 0
11 34 0
11 35 0
12 34 0
12 35 0
12 26 0
12 27 0
14 26 0
14 27 0
12 27 0
12 28 0
14 27 0
14 28 0
12 28 0
12 29 0
14 28 0
14 29 0
12 29 0
12 30 0
14 29 0
14 30 0
12 30 0
12 31 0
13 30 0
13 31 0
13 30 0
13 31 0
14 30 0
14 31 0
12 31 0
12 32 0
13 31 0
13 32 0
13 31 0
13 32 0
14 31 0
14 32 0
12 32 0
12 33 0
13 32 0
13 33 0
12 33 0
12 34 0
13 33 0
13 34 0
13 33 0
13 34 0
14 33 0
14 34 0
13 32 0
13 33 0
14 32 0
14 33 0
12 34 0
12 35 0
13 34 0
13 35 0
12 35 0
12 36 0
13 35 0
13 36 0
13 35 0
13 36 0
14 35 0
14 36 0
13 34 0
13 35 0
14 34 0
14 35 0
12 36 0
12 37 0
13 36 0
13 37 0
13 37 0
13 38 0
14 37 0
14 38 0
13 36 0
13 37 0
14 36 0
14 37 0
14 30 0
14 31 0
16 30 0
16 31 0
14 31 0
14 32 0
16 31 0
16 32 0
14 32 0
14 33 0
16 32 0
16 33 0
14 33 0
14 34 0
16 33 0
16 34 0
14 34 0
14 35 0
15 34 0
15 35 0
15 34 0
15 35 0
16 34 0
16 35 0
14 35 0
14 36 0
15 35 0
15 36 0
15 35 0
15 36 0
16 35 0
16 36 0
14 36 0
14 37 0
15 36 0
15 37 0
14 37 0
14 38 0
15 37 0
15 38 0
15 37 0
15 38 0
16 37 0
16 38 0
15 36 0
15 37 0
16 36 0
16 37 0
14 38 0
14 39 0
15 38 0
15 39 0
15 38 0
15 39 0
16 38 0
16 39 0
16 34 0
16 35 0
18 34 0
18 35 0
16 35 0
16 36 0
18 35 0
18 36 0
16 36 0
16 37 0
17 36 0
17 37 0
17 36 0
17 37 0
18 36 0
18 37 0
16 37 0
16 38 0
17 37 0
17 38 0
17 37 0
17 38 0
18 37 0
18 38 0
16 38 0
16 39 0
17 38 0
17 39 0
17 38 0
17 39 0
18 38 0
18 39 0
24 36 0
24 37 0
25 36 0
25 37 0
25 36 0
25 37 0
26 36 0
26 37 0
22 38 0
22 39 0
23 38 0
23 39 0
23 38 0
23 39 0
24 38 0
24 39 0
22 36 0
22 37 0
23 36 0
23 37 0
23 36 0
23 37 0
24 36 0
24 37 0
22 37 0
22 38 0
23 37 0
23 38 0
23 37 0
23 38 0
24 37 0
24 38 0
[...]
POINT_DATA 6544
SCALARS phi float 1
LOOKUP_TABLE default
-0.000120737
5.33118e-05
-0.000186982
7.16432e-05
5.33118e-05
-3.76634e-05
7.16432e-05
-4.66444e-05
-3.76634e-05
1.61729e-05
-4.66444e-05
2.15564e-05
1.61729e-05
-1.04179e-05
2.15564e-05
-1.28586e-05
-1.04179e-05
4.62374e-06
-1.28586e-05
6.54277e-06
4.62374e-06
1.92986e-06
6.54277e-06
3.38084e-06
-0.000186982
7.16432e-05
9.94213e-05
-5.70713e-05
7.16432e-05
-4.66444e-05
-5.70713e-05
4.65412e-05
-4.66443e-05
2.15564e-05
4.65412e-05
-1.78962e-05
2.15564e-05
-1.28586e-05
-1.78962e-05
1.30785e-05
-1.28586e-05
6.54277e-06
1.30785e-05
-4.75608e-06
6.54276e-06
3.38084e-06
-4.75608e-06
-1.19248e-06
9.94213e-05
5.84211e-05
-0.000206954
-7.18611e-05
5.84211e-05
-5.70713e-05
-7.18611e-05
0.000131051
-5.70713e-05
-2.68328e-05
0.000131051
8.52367e-05
-2.68328e-05
4.65412e-05
8.52367e-05
-7.63783e-05
4.65412e-05
-1.78962e-05
-7.63783e-05
3.15575e-05
-1.78962e-05
1.30785e-05
3.15575e-05
-2.6229e-05
1.30785e-05
-4.75608e-06
-2.62291e-05
9.75349e-06
-4.75608e-06
-1.19248e-06
9.75348e-06
5.99076e-06
-0.000206954
-7.18611e-05
-0.000301505
7.00018e-05
-7.18611e-05
0.000131051
7.00018e-05
3.69629e-05
0.000131051
8.52367e-05
3.69629e-05
0.000134298
8.52367e-05
-7.63783e-05
0.000134298
0.00011198
-7.63783e-05
-5.69079e-05
0.00011198
3.52113e-05
-5.69079e-05
3.15575e-05
3.52113e-05
-3.74287e-05
3.15575e-05
2.01046e-05
-3.74287e-05
-2.86342e-05
2.01046e-05
-2.6229e-05
-2.86342e-05
2.50825e-05
-2.6229e-05
9.75349e-06
2.50825e-05
-4.48349e-06
9.75348e-06
5.99076e-06
-4.48349e-06
6.56339e-06
0.00011198
3.52113e-05
-9.03763e-05
-4.79059e-05
3.52113e-05
-3.74287e-05
-4.79059e-05
-1.33181e-05
-3.74287e-05
-2.86342e-05
-1.33181e-05
-8.92588e-06
-2.86342e-05
2.50825e-05
-8.92588e-06
-4.75519e-05
2.50825e-05
2.45553e-05
-4.75519e-05
-2.44886e-05
2.45553e-05
-4.48349e-06
-2.44886e-05
-2.7025e-05
-4.48349e-06
-1.21137e-05
-2.7025e-05
2.44712e-05
-1.21137e-05
6.56339e-06
2.44712e-05
-6.36812e-05
-4.75519e-05
-2.44886e-05
-2.34758e-05
-1.14464e-05
-2.44886e-05
-2.7025e-05
-1.14464e-05
4.47642e-05
-2.7025e-05
2.44712e-05
4.47642e-05
1.01364e-05
2.44712e-05
-6.36812e-05
1.01364e-05
2.19661e-05
-0.000301505
7.00018e-05
-7.05773e-05
-0.000101176
7.00018e-05
3.69629e-05
-0.000101176
3.94042e-05
3.69629e-05
0.000134298
3.94042e-05
-5.59922e-06
0.000134298
0.00011198
-5.59922e-06
-9.03763e-05
-7.05773e-05
-0.000101176
-0.000322872
-0.000268721
-0.000101176
3.94042e-05
-0.000268721
-0.00014922
-0.000268721
-0.00014922
0.000571859
-5.77191e-05
-0.000322872
-0.000268721
0.00116652
0.000571859
3.94042e-05
-5.59921e-06
-0.00014922
0.000190141
-0.00014922
0.000190141
-5.77191e-05
-0.000117403
-5.59922e-06
-9.03763e-05
0.000190141
0.000197142
0.000190141
0.000197142
-0.000117403
-2.90864e-05
-9.03763e-05
-4.79059e-05
-2.90864e-05
5.46421e-06
-4.79059e-05
-1.33181e-05
5.46422e-06
-2.65475e-06
-1.33181e-05
-8.92588e-06
-2.65474e-06
-6.78381e-06
-8.92588e-06
-4.75519e-05
-6.78382e-06
-2.34758e-05
-0.000190528
0.00116652
-0.000678523
0.000736296
0.00116652
0.000571859
0.000736296
-0.00292398
0.000571859
-5.77191e-05
-0.00292398
0.00113738
-0.00292398
0.00113738
-0.00728775
0.00378286
0.000736296
-0.00292398
0.0214036
-0.00728775
-5.77191e-05
-0.000117403
0.00113738
-0.000769033
-0.000117403
-2.90864e-05
-0.000769033
-8.25807e-05
-0.000769033
-8.25806e-05
-0.0016397
0.00221199
0.00113738
-0.000769033
0.00378286
-0.0016397
-2.90864e-05
5.46421e-06
-8.25807e-05
-0.000218217
5.46422e-06
-2.65474e-06
-0.000218217
0.000158572
-0.000218217
0.000158572
-0.000531789
0.000423577
-8.25807e-05
-0.000218217
0.00221199
-0.000531789
-2.65474e-06
-6.78381e-06
0.000158572
-0.000148043
0.000158572
-0.000148043
0.000423577
-7.38694e-05
-6.78381e-06
-2.34758e-05
-0.000148043
4.38681e-05
-0.000148043
4.38681e-05
-7.38694e-05
3.3361e-05
-2.34758e-05
-1.14464e-05
3.3361e-05
-0.000355182
-1.14464e-05
4.47642e-05
-0.000355182
0.000112044
4.47642e-05
1.01364e-05
0.000112044
0.000278389
1.01364e-05
2.19661e-05
0.000278389
-1.48671e-05
0.0214036
-0.00728775
0.136476
0.0488506
-0.00728775
0.00378286
0.0488506
0.0115847
0.00378286
-0.0016397
0.0115847
-0.00155446
-0.0016397
0.00221199
-0.00155446
-0.00096949
-0.00155446
-0.00096949
0.0180412
0.00312194
0.0115847
-0.00155446
0.100684
0.0180412
0.00221199
-0.000531789
-0.00096949
-0.000626284
-0.000531789
0.000423577
-0.000626284
0.000269463
-0.000626284
0.000269463
0.00123788
-0.000181324
-0.00096949
-0.000626284
0.00312194
0.00123788
0.000423577
-7.38694e-05
0.000269462
0.000347932
-7.38694e-05
3.3361e-05
0.000347932
-0.000157126
0.000347932
-0.000157126
0.000689317
-0.000254481
0.000269463
0.000347932
-0.000181324
0.000689317
3.3361e-05
-0.000355182
-0.000157126
2.58527e-05
0.0180412
0.00312194
0.0638324
0.00468988
0.00312194
0.00123788
0.00468988
-0.00490703
0.00123788
-0.000181324
-0.00490703
0.00191468
0.00468988
-0.00490703
0.0329881
-0.0011809
-0.000181324
0.000689317
0.00191468
-0.000869986
-0.000169393
0.000156759
7.20955e-05
0.000310947
0.000156759
-0.00113094
0.000310947
-0.000898929
-0.00113094
-0.000225375
-0.000898929
-0.000322164
-0.000225375
0.000252757
-0.000322164
0.000243574
0.000252757
-0.000120737
0.000243574
-0.000186982
7.20954e-05
0.000310947
0.000580064
-5.20126e-05
0.000310948
-0.000898929
-5.20125e-05
0.00206988
-0.000898929
-0.000322164
0.00206988
0.000216611
-0.000322164
0.000243574
0.000216611
-0.000406506
0.000243574
-0.000186982
-0.000406506
9.94213e-05
0.000580064
0.000120042
-0.00186264
-0.000331663
0.000120042
-5.20126e-05
-0.000331663
0.000190967
-5.20125e-05
0.00108042
0.000190967
-0.00286636
0.00108042
0.00206988
-0.00286636
-0.00395421
0.00206988
0.00145923
-0.00395421
-0.00165313
0.00145923
0.000216611
-0.00165313
-0.000299005
0.000216611
-0.000400978
-0.000299005
0.000117606
-0.000400978
-0.000406506
0.000117606
0.00114384
-0.000406506
-0.000130092
0.00114384
0.000400231
-0.000130092
9.94213e-05
0.000400231
-0.000206954
-0.00186264
-0.000331663
0.0023489
0.00167181
-0.000331663
0.000190967
0.00167181
0.00120606
0.000190967
-0.00286637
0.00120606
0.00318282
-0.00286637
-0.00395421
0.00318282
0.00614877
-0.00395421
-0.00165313
0.00614876
0.00459354
-0.00165313
-0.000299005
0.00459354
-0.000316821
-0.000299005
0.000117606
-0.000316821
-0.00193019
0.000117606
0.00114384
-0.00193019
-0.000588184
0.00114384
0.000400231
-0.000588184
-0.000470405
0.000400231
-0.000206954
-0.000470405
-0.000301505
0.0023489
0.00167181
-0.000242837
0.000262068
0.00167181
0.00120606
0.000262069
0.000319376
0.00120606
0.00318282
0.000319376
-0.000116296
0.00318282
0.00614876
-0.000116296
0.000814221
0.00614876
0.00459354
0.000814223
0.00164624
0.00459354
-0.000316821
0.00164624
0.000479798
-0.000316821
-0.00193019
0.000479798
-0.000747557
-0.00193018
-0.000588184
-0.000747557
0.000134396
-0.000588184
-0.000470405
0.000134396
0.000252456
-0.000470405
-0.000301505
0.000252456
-7.05772e-05
0.000195286
-0.000242837
0.00332911
0.00267616
0.00332911
0.00267616
0.0040544
0.00432989
-0.000242837
0.000262068
0.00267616
0.00298652
0.000262069
0.000319376
0.00298652
0.00235668
0.00298652
0.00235668
0.00348046
0.00477653
0.00267616
0.00298652
0.00432989
0.00348046
0.000319375
-0.000116297
0.00235668
0.00578021
-0.000116296
0.000814222
0.00578021
0.0217409
0.00578021
0.0217409
0.00225933
0.0236787
0.00235668
0.00578021
0.00477653
0.00225933
0.000814222
0.00164624
0.0217409
0.0242908
0.00164624
0.000479798
0.0242908
0.000636893
0.0242908
0.000636892
0.0393235
0.0165317
0.0217409
0.0242908
0.0236787
0.0393235
0.000479798
-0.000747557
0.000636893
-0.0113342
-0.000747556
0.000134396
-0.0113342
-0.000633948
-0.0113342
-0.000633948
0.024268
0.00306081
0.000636893
-0.0113342
0.0165317
0.024268
0.000134396
0.000252456
-0.000633949
-0.000149915
0.000252456
-7.05773e-05
-0.000149916
-0.000322872
-0.000149915
-0.000322872
-0.000190528
0.00116652
-0.000633948
-0.000149915
0.00306081
-0.000190528
0.0076453
0.0040544
0.273167
0.276742
0.0040544
0.00432989
0.276742
0.26172
0.276742
0.26172
0.896256
0.889772
0.273167
0.276742
0.89115
0.896256
0.00432989
0.00348046
0.26172
0.272882
0.00348046
0.00477653
0.272882
0.257352
0.272882
0.257352
0.897189
0.882251
0.26172
0.272882
0.889772
0.897189
0.00477653
0.00225933
0.257352
0.327845
0.00225933
0.0236787
0.327845
0.630528
0.327845
0.630528
0.934939
0.983835
0.257352
0.327845
0.882251
0.934939
0.0236787
0.0393235
0.630528
0.682659
0.0393235
0.0165317
0.682659
0.284377
0.682659
0.284377
0.990642
0.891671
0.630528
0.682659
0.983835
0.990642
0.0165317
0.024268
0.284377
0.0815638
0.024268
0.00306082
0.0815638
0.0502912
0.0815638
0.0502912
0.709464
0.375712
0.284377
0.0815638
0.891671
0.709464
0.00306082
-0.000190528
0.0502912
-0.000678523
-0.000678523
0.000736296
0.00579101
0.0214036
0.0502912
-0.000678523
0.375712
0.00579102
0.896256
0.889772
0.991785
0.992747
0.889772
0.897189
0.992747
0.99087
0.897189
0.882251
0.99087
0.99441
0.99087
0.99441
0.99863
0.999935
0.992747
0.99087
0.999216
0.99863
0.882251
0.934939
0.99441
0.983588
0.934939
0.983835
0.983588
0.99056
0.983588
0.99056
0.997199
1.00567
0.99441
0.983588
0.999935
0.997199
0.983835
0.990642
0.99056
0.989893
0.990642
0.891671
0.989893
0.994685
0.99056
0.989893
1.00567
1.00488
0.891671
0.709464
0.994685
0.975531
0.709464
0.375712
0.975531
0.819235
0.375712
0.00579102
0.819235
0.222431
0.998512
0.997672
1.00125
1.00101
0.997672
0.996436
1.00101
1.00178
0.996436
0.995976
1.00178
1.00285
0.995976
0.998197
1.00285
1.00069
1.00125
1.00101
0.999497
0.999283
1.00101
1.00178
0.999283
0.999048
1.00178
1.00285
0.999048
0.998974
1.00285
1.00069
0.998974
0.999364
1.00069
0.998111
0.999364
1.00115
0.998111
1.00065
1.00115
1.00467
1.00065
0.998797
1.00467
1.00293
0.998797
1.00025
1.00293
1.00251
0.999497
0.999048
1.00015
1.00056
0.999048
0.999364
1.00056
1.00005
0.999364
1.00115
1.00005
1.00012
1.00115
1.00467
1.00012
1.00078
1.00467
1.00293
1.00078
1.00243
1.00293
1.00251
1.00243
1.00631
1.00251
1.00643
1.00631
1.01122
1.00643
0.993916
1.01122
1.00308
1.00015
1.00056
0.9999
1.00004
1.00056
1.00005
1.00004
0.999836
1.00005
1.00078
0.999836
0.999832
1.00078
1.00631
0.999833
1.00014
1.00631
1.01122
1.00014
1.00799
1.01122
1.00308
1.00799
0.999039
1.00003
0.9999
1
0.999414
0.9999
1.00004
0.999414
1.00062
1.00004
0.999836
1.00062
0.99797
0.999836
0.999833
0.99797
1.00414
0.999832
1.00014
1.00414
0.995623
1.00014
0.999039
0.995623
0.998685
0.999414
1.00062
1.00038
1.00067
0.99797
1.00414
1.0009
0.997128
1.00414
0.995623
0.997128
0.998742
0.995623
0.998685
0.998742
1.00233
0.989893
0.994685
1.00488
1.00296
0.975531
0.819235
0.983096
0.944358
0.994685
0.975531
1.00296
0.983096
0.00579102
0.0214036
0.222431
0.136476
0.222431
0.136476
0.792492
0.740163
0.819235
0.222431
0.944358
0.792492
0.0488506
0.0115847
0.440585
0.100684
0.136476
0.0488506
0.740163
0.440585
0.999935
0.997199
0.998512
0.997672
0.997199
1.00567
0.997672
0.996436
1.00567
1.00488
0.996436
0.995976
1.00488
1.00296
0.995976
0.998197
1.00296
0.983096
1.00562
0.992517
1.00562
0.992517
0.998197
1.00435
0.983096
0.944358
0.992517
0.985223
0.992517
0.985223
1.00435
0.99898
0.944358
0.792492
0.985223
0.982744
0.792492
0.740163
0.982744
0.975166
0.982744
0.975166
0.998936
0.999517
0.985223
0.982744
0.99898
0.998936
0.740163
0.440585
0.975166
0.857606
0.440585
0.100684
0.857606
0.435941
0.857606
0.435941
0.973755
0.768645
0.975166
0.857606
0.999517
0.973755
0.100684
0.0180412
0.435941
0.0638324
0.0638324
0.00468988
0.235449
0.0329881
0.435941
0.0638324
0.768645
0.235449
0.998197
1.00435
1.00069
0.998111
1.00435
0.99898
0.998111
1.00065
0.99898
0.998936
1.00065
0.998797
0.998936
0.999517
0.998797
1.00025
0.999517
0.973755
1.00048
0.994454
1.00048
0.994454
1.00025
0.99898
0.973755
0.768645
0.994454
0.905896
0.994454
0.905896
0.99898
0.942947
0.768645
0.235449
0.905896
0.389459
0.235449
0.0329881
0.389459
-0.00440643
0.389459
-0.00440644
0.682406
0.304493
0.905896
0.389459
0.942947
0.682406
0.0329881
-0.0011809
-0.00440644
0.00879507
-0.00440644
0.00879507
0.304493
0.0378804
1.00025
0.99898
1.00251
1.00643
0.99898
0.942947
1.00643
0.993916
0.942947
0.682406
0.970666
0.898627
0.970666
0.898627
0.993916
0.969357
0.682406
0.304493
0.898627
0.715434
0.898627
0.715434
0.969357
0.916703
0.304493
0.0378804
0.715434
0.195344
0.715434
0.195344
0.916703
0.440417
0.998685
0.98225
1.00146
0.979477
1.00146
0.979477
1.00233
0.983195
0.91475
0.317998
0.912418
0.293494
0.912418
0.293493
0.959015
0.428829
0.999039
0.985566
0.997908
0.981219
0.997908
0.981219
0.998685
0.98225
0.985566
0.91475
0.981219
0.912418
0.981219
0.912418
0.98225
0.959015
0.993916
0.969357
1.0031
0.983483
1.0031
0.983483
1.00308
0.985794
0.969357
0.916703
0.983483
0.989227
0.983483
0.989227
0.985794
0.975141
0.916703
0.440417
0.989227
0.680773
0.989227
0.680773
0.975141
0.647097
0.975141
0.647097
0.915406
0.307884
0.915406
0.307884
0.91475
0.317998
1.00308
0.985794
1.00104
0.991163
1.00104
0.991163
0.999039
0.985566
0.985794
0.975141
0.991163
0.915406
0.991163
0.915406
0.985566
0.91475
-0.000355182
0.000112044
2.58528e-05
-7.48286e-05
2.58528e-05
-7.48286e-05
0.000183614
-8.67687e-06
-0.000157126
2.58528e-05
-0.000254481
0.000183614
0.000112044
0.000278389
-7.48286e-05
-0.000311936
-7.48286e-05
-0.000311936
-8.67686e-06
-0.00053629
0.000278389
-1.48671e-05
-0.000311936
-0.000188948
-0.000311936
-0.000188948
-0.00053629
-0.000180651
-0.00490703
0.00191468
-0.0011809
0.00116315
0.000689317
-0.000254481
-0.000869986
0.000277852
-0.000869986
0.000277852
-0.000321114
-0.000439481
0.00191468
-0.000869986
0.00116315
-0.000321114
-0.000254482
0.000183614
0.000277852
-0.00220082
0.000183614
-8.67687e-06
-0.00220082
-8.3074e-05
-0.00220082
-8.3074e-05
-0.000609253
-0.000349797
0.000277852
-0.00220082
-0.000439481
-0.000609253
-8.67689e-06
-0.00053629
-8.3074e-05
0.000295085
-8.3074e-05
0.000295085
-0.000349797
0.00042649
-0.00053629
-0.000180651
0.000295085
0.000182095
0.000295085
0.000182095
0.00042649
0.000312408
-0.0011809
0.00116315
0.00879507
-0.00655731
0.00879507
-0.00655731
0.0378804
0.00581767
0.00116315
-0.000321114
-0.00655731
0.00345878
-0.000321114
-0.000439481
0.00345878
-0.0015906
0.00345878
-0.0015906
-0.00270461
0.00181428
-0.00655731
0.00345878
0.00581767
-0.00270461
-0.000439481
-0.000609253
-0.0015906
0.000790386
-0.000609253
-0.000349797
0.000790387
-0.000213264
0.000790386
-0.000213264
-0.000825382
0.000516751
-0.0015906
0.000790386
0.00181428
-0.000825382
-0.000349797
0.000426491
-0.000213264
-0.000652267
-0.000213264
-0.000652267
0.000516751
-0.000679726
0.000426491
0.000312408
-0.000652267
-0.000215504
-0.000652267
-0.000215504
-0.000679726
-0.000424142
-0.00271338
0.00192276
-0.00419132
0.00245658
-0.00419132
0.00245658
-0.00501415
0.00270552
0.00192276
0.00137796
0.00245658
0.00196296
0.00245658
0.00196296
0.00270552
0.00227586
-0.0095707
0.00475045
-0.0172133
0.00802523
0.00475045
-0.00271338
0.00802523
-0.00419132
0.00802523
-0.00419132
0.00988659
-0.00501415
-0.0172133
0.00802523
-0.0213503
0.00988659
0.0108209
0.0159732
0.0385396
0.0259484
0.0159732
-0.0095707
0.0259484
-0.0172133
0.0378804
0.00581767
0.195344
0.0139949
0.195344
0.0139949
0.440417
0.0154765
0.00581767
-0.00270462
0.0139949
-0.00157197
-0.00270461
0.00181428
-0.00157197
0.00281754
-0.00157197
0.00281753
0.0191259
-0.0109616
0.0139949
-0.00157197
0.0154765
0.0191259
0.00181428
-0.000825382
0.00281753
-0.000713311
-0.000825382
0.000516751
-0.000713311
-0.00016273
-0.000713312
-0.00016273
0.00545128
-0.00298745
0.00281754
-0.000713312
-0.0109616
0.00545128
0.000516751
-0.000679726
-0.00016273
0.000870429
-0.00016273
0.000870429
-0.00298745
0.0019248
-0.000679726
-0.000424142
0.000870429
0.00057584
0.000870429
0.00057584
0.0019248
0.00191788
-0.000564403
-0.000268733
-0.00088283
0.000601054
-0.00088283
0.000601054
-0.00271338
0.00192276
-0.000268733
-4.20996e-05
0.000601055
0.000394378
0.000601055
0.000394378
0.00192276
0.00137796
-0.00392605
0.00173422
-0.00285852
0.00152435
0.00173422
-0.000564403
0.00152435
-0.00088283
0.00152435
-0.00088283
0.00475045
-0.00271338
-0.00285852
0.00152435
-0.0095707
0.00475045
0.00845052
0.00670713
0.00328206
0.00527144
0.00670713
-0.00392605
0.00527144
-0.00285852
0.00527144
-0.00285852
0.0159732
-0.0095707
0.00328206
0.00527144
0.0108209
0.0159732
0.317998
0.00845052
0.293493
0.00328206
0.293493
0.00328206
0.428829
0.0108209
-0.0041678
0.00286103
-0.00155588
0.00162568
-0.00155588
0.00162568
-0.000564403
-0.000268734
0.00286103
0.00208335
0.00162568
0.000845027
0.00162568
0.000845027
-0.000268733
-4.20996e-05
-0.0159352
0.00748683
-0.00356429
0.00210463
0.00748683
-0.0041678
0.00210463
-0.00155588
0.00210463
-0.00155588
0.00173422
-0.000564403
-0.00356429
0.00210463
-0.00392605
0.00173422
0.440417
0.0154765
0.680773
0.0429735
0.680773
0.0429735
0.647097
0.0621718
0.0154765
0.0191259
0.0429735
0.0347103
0.0191259
-0.0109616
0.0347103
-0.0255365
0.0347103
-0.0255365
0.0239458
-0.0159352
0.0429735
0.0347103
0.0621718
0.0239458
-0.0109616
0.00545128
-0.0255365
0.0113139
0.00545128
-0.00298745
0.0113139
-0.00534099
0.0113139
-0.00534099
0.00748683
-0.0041678
-0.0255365
0.0113139
-0.0159352
0.00748683
-0.00298745
0.0019248
-0.00534099
0.00228551
-0.00534099
0.00228551
-0.0041678
0.00286103
0.0019248
0.00191788
0.00228551
0.0025061
0.00228551
0.0025061
0.00286103
0.00208335
0.0621718
0.0239458
0.000709702
0.00656229
0.0239458
-0.0159352
0.00656229
-0.00356429
0.00656229
-0.00356429
0.00670713
-0.00392605
0.000709702
0.00656229
0.00845052
0.00670713
0.647097
0.0621718
0.307884
0.000709703
0.307884
0.000709702
0.317998
0.00845052
-1.46123e-05
3.08333e-05
-4.85408e-06
1.11797e-05
3.08333e-05
3.39653e-05
1.11797e-05
-5.45449e-06
-4.85407e-06
1.11797e-05
1.55757e-05
7.6228e-06
1.11797e-05
-5.45449e-06
7.6228e-06
7.49155e-06
5.51406e-06
-2.49586e-05
1.07319e-05
-2.47453e-05
-2.49586e-05
1.55757e-05
-2.47453e-05
1.07256e-05
1.55757e-05
7.49155e-06
1.07256e-05
8.37332e-06
7.08964e-06
1.14846e-07
9.05303e-05
-4.77e-05
1.14846e-07
-3.80788e-06
-4.77e-05
-1.04833e-05
-3.80789e-06
1.81571e-05
-1.04833e-05
1.12513e-05
1.81571e-05
1.07319e-05
1.12513e-05
-1.99875e-05
1.07319e-05
-2.47453e-05
-1.99875e-05
-6.71879e-06
-2.47453e-05
1.07256e-05
-6.71879e-06
1.33323e-05
1.07256e-05
8.37332e-06
1.33323e-05
1.37838e-05
-6.8181e-06
3.27374e-05
8.65956e-05
7.51542e-05
3.27374e-05
9.05304e-05
7.51542e-05
-7.28332e-05
9.05303e-05
-4.77e-05
-7.28332e-05
-4.74068e-05
-4.77e-05
-1.04833e-05
-4.74068e-05
4.55396e-05
-1.04833e-05
1.12513e-05
4.55395e-05
3.20502e-05
1.12513e-05
-1.99875e-05
3.20502e-05
-1.76714e-05
-1.99875e-05
1.33323e-05
-1.76714e-05
1.27299e-05
1.33323e-05
1.37838e-05
1.27299e-05
1.44738e-05
8.65956e-05
7.51542e-05
-9.89204e-08
6.86108e-06
7.51542e-05
-7.28332e-05
6.86108e-06
2.94402e-05
-7.28332e-05
4.55395e-05
2.94402e-05
-1.49837e-05
4.55395e-05
-1.76714e-05
-1.49837e-05
3.56312e-06
-1.76714e-05
1.27299e-05
3.56312e-06
-3.39448e-06
1.27299e-05
1.44738e-05
-3.39448e-06
-4.67228e-06
-9.89095e-08
2.94402e-05
-1.35751e-05
2.90716e-05
2.94402e-05
-1.49837e-05
2.90716e-05
-1.54566e-05
-1.49837e-05
3.56312e-06
-1.54566e-05
3.72171e-06
3.56312e-06
-3.39448e-06
3.72171e-06
-3.25267e-06
-3.39448e-06
-4.67228e-06
-3.25267e-06
-4.18871e-06
0.000125777
-0.000162127
-6.8181e-06
3.27373e-05
-0.000162127
7.08967e-06
3.27374e-05
9.05304e-05
-0.000158249
0.000125777
2.69256e-05
-6.8181e-06
3.33541e-05
-5.90872e-05
-3.80788e-06
1.81571e-05
-5.90872e-05
5.51406e-06
1.81571e-05
1.07319e-05
0.000107034
-4.55973e-05
7.08964e-06
1.14838e-07
-4.55973e-05
3.33541e-05
1.14833e-07
-3.80788e-06
-0.000510141
-0.000421041
-0.000154122
0.000667592
-0.000154122
0.000667592
0.000125777
-0.000162127
-0.000421041
0.000107034
0.000667592
-0.000239394
0.000667592
-0.000239394
-0.000162127
7.08965e-06
0.00125658
-0.000510141
-0.000377724
-0.000154122
-0.000377724
-0.000154122
-0.000158249
0.000125777
-1.35841e-05
2.21052e-05
5.51406e-06
-2.49586e-05
2.21052e-05
-4.85408e-06
-2.49586e-05
1.55757e-05
-0.000123996
-0.000137337
-1.21666e-06
0.000202683
-1.21666e-06
0.000202683
3.33541e-05
-5.90872e-05
-0.000137337
-1.3584e-05
0.000202683
-5.02027e-05
0.000202683