# vtk DataFile Version 2.0
Hex test
ASCII
DATASET UNSTRUCTURED_GRID
POINTS 50036 float
-6 48 0
-6 50 0
-2.16667 48 0
-2.16667 50 0
-6 50 0
-6 52 0
-2.16667 50 0
-2.16667 52 0
-6 52 0
-6 54 0
-2.16667 52 0
-2.16667 54 0
-6 54 0
-6 56 0
-2.16667 54 0
-2.16667 56 0
-6 56 0
-6 58 0
-2.16667 56 0
-2.16667 58 0
-6 58 0
-6 60 0
-2.16667 58 0
-2.16667 60 0
-6 60 0
-6 62 0
-2.16667 60 0
-2.16667 62 0
-6 62 0
-6 64 0
-2.16667 62 0
-2.16667 64 0
-6 64 0
-6 66 0
-2.16667 64 0
-2.16667 66 0
-6 66 0
-6 68 0
-2.16667 66 0
-2.16667 68 0
-6 68 0
-6 70 0
-2.16667 68 0
-2.16667 70 0
-2.16667 46 0
-2.16667 48 0
-2.77556e-17 46 0
-5.55112e-17 48 0
-2.16667 48 0
-2.16667 50 0
-2.77556e-17 48 0
-5.55112e-17 50 0
-2.16667 50 0
-2.16667 52 0
-2.77556e-17 50 0
-5.55112e-17 52 0
-2.16667 52 0
-2.16667 54 0
-2.77556e-17 52 0
-5.55112e-17 54 0
-2.16667 54 0
-2.16667 56 0
-2.77556e-17 54 0
-5.55112e-17 56 0
-2.16667 56 0
-2.16667 58 0
-2.77556e-17 56 0
-5.55112e-17 58 0
-2.16667 58 0
-2.16667 60 0
-2.77556e-17 58 0
-5.55112e-17 60 0
-2.16667 60 0
-2.16667 62 0
-2.77556e-17 60 0
-5.55112e-17 62 0
-2.16667 62 0
-2.16667 64 0
-2.77556e-17 62 0
-5.55112e-17 64 0
-2.16667 64 0
-2.16667 66 0
-2.77556e-17 64 0
-5.55112e-17 66 0
-2.16667 66 0
-2.16667 68 0
-2.77556e-17 66 0
-5.55112e-17 68 0
2.77556e-17 46 0
2.77556e-17 48 0
2 46 0
2 48 0
2.77556e-17 48 0
2.77556e-17 50 0
2 48 0
2 50 0
2.77556e-17 50 0
2.77556e-17 52 0
2 50 0
2 52 0
2.77556e-17 52 0
2.77556e-17 54 0
2 52 0
2 54 0
2.77556e-17 54 0
2.77556e-17 56 0
2 54 0
2 56 0
2.77556e-17 56 0
2.77556e-17 58 0
2 56 0
2 58 0
2.77556e-17 58 0
2.77556e-17 60 0
2 58 0
2 60 0
2.77556e-17 60 0
2.77556e-17 62 0
2 60 0
2 62 0
2.77556e-17 62 0
2.77556e-17 64 0
2 62 0
2 64 0
2.77556e-17 64 0
2.77556e-17 66 0
2 64 0
2 66 0
2.77556e-17 66 0
2.77556e-17 68 0
2 66 0
2 68 0
2 46 0
2 48 0
4 46 0
4 48 0
2 48 0
2 50 0
4 48 0
4 50 0
2 50 0
2 52 0
4 50 0
4 52 0
2 52 0
2 54 0
4 52 0
4 54 0
2 54 0
2 56 0
4 54 0
4 56 0
2 56 0
2 58 0
4 56 0
4 58 0
2 58 0
2 60 0
4 58 0
4 60 0
2 60 0
2 62 0
4 60 0
4 62 0
2 62 0
2 64 0
4 62 0
4 64 0
2 64 0
2 66 0
4 64 0
4 66 0
2 66 0
2 68 0
4 66 0
4 68 0
4 46 0
4 48 0
6 46 0
6 48 0
4 48 0
4 50 0
6 48 0
6 50 0
4 50 0
4 52 0
6 50 0
6 52 0
4 52 0
4 54 0
6 52 0
6 54 0
4 54 0
4 56 0
6 54 0
6 56 0
4 56 0
4 58 0
6 56 0
6 58 0
4 58 0
4 60 0
6 58 0
6 60 0
4 60 0
4 62 0
6 60 0
6 62 0
4 62 0
4 64 0
6 62 0
6 64 0
4 64 0
4 66 0
6 64 0
6 66 0
4 66 0
4 68 0
6 66 0
6 68 0
6 44 0
6 45 0
8 44 0
8 45 0
6 45 0
6 46 0
8 45 0
8 46 0
6 46 0
6 48 0
8 46 0
8 48 0
6 48 0
6 50 0
8 48 0
8 50 0
6 50 0
6 52 0
8 50 0
8 52 0
6 52 0
6 54 0
8 52 0
8 54 0
6 54 0
6 56 0
8 54 0
8 56 0
6 56 0
6 58 0
8 56 0
8 58 0
6 58 0
6 60 0
8 58 0
8 60 0
6 60 0
6 62 0
8 60 0
8 62 0
6 62 0
6 64 0
8 62 0
8 64 0
6 64 0
6 66 0
8 64 0
8 66 0
6 66 0
6 68 0
8 66 0
8 68 0
8 44 0
8 45 0
10 44 0
10 45 0
8 45 0
8 46 0
10 45 0
10 46 0
8 46 0
8 47 0
10 46 0
10 47 0
8 47 0
8 48 0
10 47 0
10 48 0
8 48 0
8 50 0
10 48 0
10 50 0
8 50 0
8 52 0
10 50 0
10 52 0
8 52 0
8 54 0
10 52 0
10 54 0
8 54 0
8 56 0
10 54 0
10 56 0
8 56 0
8 58 0
10 56 0
10 58 0
8 58 0
8 60 0
10 58 0
10 60 0
8 60 0
8 62 0
10 60 0
10 62 0
8 62 0
8 64 0
10 62 0
10 64 0
8 64 0
8 66 0
10 64 0
10 66 0
8 66 0
8 68 0
10 66 0
10 68 0
10 46 0
10 47 0
12 46 0
12 47 0
10 47 0
10 48 0
12 47 0
12 48 0
10 48 0
10 49 0
12 48 0
12 49 0
10 49 0
10 50 0
12 49 0
12 50 0
10 50 0
10 52 0
12 50 0
12 52 0
10 52 0
10 54 0
12 52 0
12 54 0
10 54 0
10 56 0
12 54 0
12 56 0
10 56 0
10 58 0
12 56 0
12 58 0
10 58 0
10 60 0
12 58 0
12 60 0
10 60 0
10 62 0
12 60 0
12 62 0
10 62 0
10 64 0
12 62 0
12 64 0
10 64 0
10 66 0
12 64 0
12 66 0
10 66 0
10 68 0
12 66 0
12 68 0
12 48 0
12 49 0
14 48 0
14 49 0
12 49 0
12 50 0
14 49 0
14 50 0
12 50 0
12 51 0
14 50 0
14 51 0
12 51 0
12 52 0
14 51 0
14 52 0
12 52 0
12 54 0
14 52 0
14 54 0
12 54 0
12 56 0
14 54 0
14 56 0
12 56 0
12 58 0
14 56 0
14 58 0
12 58 0
12 60 0
14 58 0
14 60 0
12 60 0
12 62 0
14 60 0
14 62 0
12 62 0
12 64 0
14 62 0
14 64 0
12 64 0
12 66 0
14 64 0
14 66 0
14 50 0
14 51 0
16 50 0
16 51 0
14 51 0
14 52 0
16 51 0
16 52 0
14 52 0
14 54 0
16 52 0
16 54 0
14 54 0
14 56 0
16 54 0
16 56 0
14 56 0
14 58 0
16 56 0
16 58 0
14 58 0
14 60 0
16 58 0
16 60 0
14 60 0
14 62 0
16 60 0
16 62 0
14 62 0
14 64 0
16 62 0
16 64 0
14 64 0
14 66 0
16 64 0
16 66 0
16 52 0
16 54 0
18 52 0
18 54 0
16 54 0
16 56 0
18 54 0
18 56 0
16 56 0
16 58 0
18 56 0
18 58 0
16 58 0
16 60 0
18 58 0
18 60 0
16 60 0
16 62 0
18 60 0
18 62 0
16 62 0
16 64 0
18 62 0
18 64 0
16 64 0
16 66 0
18 64 0
18 66 0
18 52 0
18 54 0
20 52 0
20 54 0
18 54 0
18 56 0
20 54 0
20 56 0
18 56 0
18 58 0
20 56 0
20 58 0
18 58 0
18 60 0
20 58 0
20 60 0
18 60 0
18 62 0
20 60 0
20 62 0
18 62 0
18 64 0
20 62 0
20 64 0
20 52 0
20 54 0
22 52 0
22 54 0
20 54 0
20 56 0
22 54 0
22 56 0
20 56 0
20 58 0
22 56 0
22 58 0
20 58 0
20 60 0
22 58 0
22 60 0
20 60 0
20 62 0
22 60 0
22 62 0
20 62 0
20 64 0
22 62 0
22 64 0
22 52 0
22 54 0
24 52 0
24 54 0
22 54 0
22 56 0
24 54 0
24 56 0
22 56 0
22 58 0
24 56 0
24 58 0
22 58 0
22 60 0
24 58 0
24 60 0
22 60 0
22 62 0
24 60 0
24 62 0
22 62 0
22 64 0
24 62 0
24 64 0
24 40 0
24 41 0
26 40 0
26 41 0
24 41 0
24 42 0
26 41 0
26 42 0
24 52 0
24 54 0
26 52 0
26 54 0
24 54 0
24 56 0
26 54 0
26 56 0
24 56 0
24 58 0
26 56 0
26 58 0
24 58 0
24 60 0
26 58 0
26 60 0
24 60 0
24 62 0
26 60 0
26 62 0
26 40 0
26 41 0
28 40 0
28 41 0
26 41 0
26 42 0
28 41 0
28 42 0
26 52 0
26 54 0
28 52 0
28 54 0
26 54 0
26 56 0
28 54 0
28 56 0
26 56 0
26 58 0
28 56 0
28 58 0
26 58 0
26 60 0
28 58 0
28 60 0
26 60 0
26 62 0
28 60 0
28 62 0
28 38 0
28 40 0
30 38 0
30 40 0
28 40 0
28 42 0
30 40 0
30 42 0
28 52 0
28 54 0
30 52 0
30 54 0
28 54 0
28 56 0
30 54 0
30 56 0
28 56 0
28 58 0
30 56 0
30 58 0
28 58 0
28 60 0
30 58 0
30 60 0
28 60 0
28 62 0
30 60 0
30 62 0
30 52 0
30 54 0
32 52 0
32 54 0
30 54 0
30 56 0
32 54 0
32 56 0
30 56 0
30 58 0
32 56 0
32 58 0
30 58 0
30 60 0
32 58 0
32 60 0
32 52 0
32 54 0
34 52 0
34 54 0
32 54 0
32 56 0
34 54 0
34 56 0
32 56 0
32 58 0
34 56 0
34 58 0
32 58 0
32 60 0
34 58 0
34 60 0
34 52 0
34 54 0
36 52 0
36 54 0
34 54 0
34 56 0
36 54 0
36 56 0
34 56 0
34 58 0
36 56 0
36 58 0
10 44 0
10 45 0
12 44 0
12 45 0
10 45 0
10 46 0
12 45 0
12 46 0
12 43 0
12 44 0
13 43 0
13 44 0
13 43 0
13 44 0
14 43 0
14 44 0
12 44 0
12 45 0
13 44 0
13 45 0
13 44 0
13 45 0
14 44 0
14 45 0
12 45 0
12 46 0
13 45 0
13 46 0
13 45 0
13 46 0
14 45 0
14 46 0
12 46 0
12 47 0
14 46 0
14 47 0
12 47 0
12 48 0
14 47 0
14 48 0
14 43 0
14 44 0
15 43 0
15 44 0
15 43 0
15 44 0
16 43 0
16 44 0
15 42 0
15 43 0
16 42 0
16 43 0
14 44 0
14 45 0
15 44 0
15 45 0
14 45 0
14 46 0
15 45 0
15 46 0
15 45 0
15 46 0
16 45 0
16 46 0
15 44 0
15 45 0
16 44 0
16 45 0
14 46 0
14 47 0
15 46 0
15 47 0
15 46 0
15 47 0
16 46 0
16 47 0
14 47 0
14 48 0
15 47 0
15 48 0
15 47 0
15 48 0
16 47 0
16 48 0
14 48 0
14 49 0
16 48 0
16 49 0
14 49 0
14 50 0
16 49 0
16 50 0
17 41 0
17 42 0
18 41 0
18 42 0
16 42 0
16 43 0
17 42 0
17 43 0
16 43 0
16 44 0
17 43 0
17 44 0
17 43 0
17 44 0
18 43 0
18 44 0
17 42 0
17 43 0
18 42 0
18 43 0
16 44 0
16 45 0
17 44 0
17 45 0
16 45 0
16 46 0
17 45 0
17 46 0
17 45 0
17 46 0
18 45 0
18 46 0
17 44 0
17 45 0
18 44 0
18 45 0
16 46 0
16 47 0
17 46 0
17 47 0
16 47 0
16 48 0
17 47 0
17 48 0
17 47 0
17 48 0
18 47 0
18 48 0
17 46 0
17 47 0
18 46 0
18 47 0
16 48 0
16 49 0
17 48 0
17 49 0
17 48 0
17 49 0
18 48 0
18 49 0
16 49 0
16 50 0
17 49 0
17 50 0
17 49 0
17 50 0
18 49 0
18 50 0
16 50 0
16 51 0
18 50 0
18 51 0
16 51 0
16 52 0
18 51 0
18 52 0
18 41 0
18 42 0
19 41 0
19 42 0
19 41 0
19 42 0
20 41 0
20 42 0
18 42 0
18 43 0
19 42 0
19 43 0
18 43 0
18 44 0
19 43 0
19 44 0
19 43 0
19 44 0
20 43 0
20 44 0
19 42 0
19 43 0
20 42 0
20 43 0
18 44 0
18 45 0
19 44 0
19 45 0
18 45 0
18 46 0
19 45 0
19 46 0
19 45 0
19 46 0
20 45 0
20 46 0
19 44 0
19 45 0
20 44 0
20 45 0
18 46 0
18 47 0
19 46 0
19 47 0
18 47 0
18 48 0
19 47 0
19 48 0
19 47 0
19 48 0
20 47 0
20 48 0
19 46 0
19 47 0
20 46 0
20 47 0
18 48 0
18 49 0
19 48 0
19 49 0
18 49 0
18 50 0
19 49 0
19 50 0
19 49 0
19 50 0
20 49 0
20 50 0
19 48 0
19 49 0
20 48 0
20 49 0
18 50 0
18 51 0
19 50 0
19 51 0
19 50 0
19 51 0
20 50 0
20 51 0
18 51 0
18 52 0
19 51 0
19 52 0
19 51 0
19 52 0
20 51 0
20 52 0
20 41 0
20 42 0
21 41 0
21 42 0
21 41 0
21 42 0
22 41 0
22 42 0
20 42 0
20 43 0
21 42 0
21 43 0
20 43 0
20 44 0
21 43 0
21 44 0
21 43 0
21 44 0
22 43 0
22 44 0
21 42 0
21 43 0
22 42 0
22 43 0
20 44 0
20 45 0
21 44 0
21 45 0
20 45 0
20 46 0
21 45 0
21 46 0
21 45 0
21 46 0
22 45 0
22 46 0
21 44 0
21 45 0
22 44 0
22 45 0
20 46 0
20 47 0
21 46 0
21 47 0
20 47 0
20 48 0
21 47 0
21 48 0
21 47 0
21 48 0
22 47 0
22 48 0
21 46 0
21 47 0
22 46 0
22 47 0
20 48 0
20 49 0
21 48 0
21 49 0
20 49 0
20 50 0
21 49 0
21 50 0
21 49 0
21 50 0
22 49 0
22 50 0
21 48 0
21 49 0
22 48 0
22 49 0
20 50 0
20 51 0
21 50 0
21 51 0
21 50 0
21 51 0
22 50 0
22 51 0
20 51 0
20 52 0
21 51 0
21 52 0
21 51 0
21 52 0
22 51 0
22 52 0
22 40 0
22 41 0
24 40 0
24 41 0
22 41 0
22 42 0
24 41 0
24 42 0
22 42 0
22 43 0
23 42 0
23 43 0
23 42 0
23 43 0
24 42 0
24 43 0
22 43 0
22 44 0
23 43 0
23 44 0
23 43 0
23 44 0
24 43 0
24 44 0
22 44 0
22 45 0
23 44 0
23 45 0
22 45 0
22 46 0
23 45 0
23 46 0
23 45 0
23 46 0
24 45 0
24 46 0
23 44 0
23 45 0
24 44 0
24 45 0
22 46 0
22 47 0
23 46 0
23 47 0
22 47 0
22 48 0
23 47 0
23 48 0
23 47 0
23 48 0
24 47 0
24 48 0
23 46 0
23 47 0
24 46 0
24 47 0
22 48 0
22 49 0
23 48 0
23 49 0
22 49 0
22 50 0
23 49 0
23 50 0
23 49 0
23 50 0
24 49 0
24 50 0
23 48 0
23 49 0
24 48 0
24 49 0
22 50 0
22 51 0
23 50 0
23 51 0
23 50 0
23 51 0
24 50 0
24 51 0
22 51 0
22 52 0
23 51 0
23 52 0
23 51 0
23 52 0
24 51 0
24 52 0
24 42 0
24 43 0
25 42 0
25 43 0
25 42 0
25 43 0
26 42 0
26 43 0
24 43 0
24 44 0
25 43 0
25 44 0
25 43 0
25 44 0
26 43 0
26 44 0
24 44 0
24 45 0
25 44 0
25 45 0
24 45 0
24 46 0
25 45 0
25 46 0
25 45 0
25 46 0
26 45 0
26 46 0
25 44 0
25 45 0
26 44 0
26 45 0
24 46 0
24 47 0
25 46 0
25 47 0
24 47 0
24 48 0
25 47 0
25 48 0
25 47 0
25 48 0
26 47 0
26 48 0
25 46 0
25 47 0
26 46 0
26 47 0
24 48 0
24 49 0
25 48 0
25 49 0
24 49 0
24 50 0
25 49 0
25 50 0
25 49 0
[...]
POINT_DATA 50036
SCALARS phi float 1
LOOKUP_TABLE default
3.93418e-07
-1.61363e-07
4.15161e-07
-1.71004e-07
-1.61363e-07
4.64366e-08
-1.71004e-07
5.01592e-08
4.64366e-08
-3.31506e-08
5.01592e-08
-3.58296e-08
-3.31506e-08
1.79414e-08
-3.58296e-08
1.9446e-08
1.79414e-08
-9.41492e-09
1.94459e-08
-1.02139e-08
-9.41492e-09
4.88357e-09
-1.02138e-08
5.30945e-09
4.88357e-09
-2.53717e-09
5.30945e-09
-2.76876e-09
-2.53717e-09
1.31587e-09
-2.76876e-09
1.44253e-09
1.31587e-09
-6.83469e-10
1.44253e-09
-7.51153e-10
-6.83469e-10
3.53166e-10
-7.51153e-10
3.88609e-10
3.53166e-10
-1.83825e-10
3.88609e-10
-2.03135e-10
-8.89044e-07
4.15161e-07
1.44839e-06
-6.75753e-07
4.15161e-07
-1.71004e-07
-6.75754e-07
2.76095e-07
-1.71004e-07
5.01592e-08
2.76095e-07
-7.9989e-08
5.01591e-08
-3.58296e-08
-7.9989e-08
5.75535e-08
-3.58296e-08
1.9446e-08
5.75535e-08
-3.11695e-08
1.94459e-08
-1.02139e-08
-3.11695e-08
1.63419e-08
-1.02138e-08
5.30945e-09
1.63419e-08
-8.46576e-09
5.30945e-09
-2.76876e-09
-8.46576e-09
4.41083e-09
-2.76876e-09
1.44253e-09
4.41083e-09
-2.29401e-09
1.44253e-09
-7.51153e-10
-2.29401e-09
1.19368e-09
-7.51153e-10
3.88609e-10
1.19368e-09
-6.16537e-10
1.44839e-06
-6.75753e-07
-2.51893e-06
1.17311e-06
-6.75753e-07
2.76095e-07
1.17311e-06
-4.82516e-07
2.76095e-07
-7.9989e-08
-4.82516e-07
1.39092e-07
-7.9989e-08
5.75535e-08
1.39092e-07
-1.00512e-07
5.75535e-08
-3.11695e-08
-1.00512e-07
5.45367e-08
-3.11695e-08
1.63419e-08
5.45367e-08
-2.86004e-08
1.63419e-08
-8.46576e-09
-2.86004e-08
1.47653e-08
-8.46576e-09
4.41083e-09
1.47653e-08
-7.75415e-09
4.41083e-09
-2.29401e-09
-7.75415e-09
3.9922e-09
-2.29401e-09
1.19368e-09
3.9922e-09
-2.0907e-09
1.19368e-09
-6.16537e-10
-2.0907e-09
1.08384e-09
-2.51893e-06
1.17311e-06
4.68532e-06
-2.1914e-06
1.17311e-06
-4.82516e-07
-2.1914e-06
9.03503e-07
-4.82516e-07
1.39092e-07
9.03503e-07
-2.60322e-07
1.39092e-07
-1.00512e-07
-2.60322e-07
1.89103e-07
-1.00512e-07
5.45367e-08
1.89103e-07
-1.01843e-07
5.45367e-08
-2.86004e-08
-1.01843e-07
5.34647e-08
-2.86004e-08
1.47653e-08
5.34647e-08
-2.77345e-08
1.47653e-08
-7.75415e-09
-2.77345e-08
1.44948e-08
-7.75415e-09
3.9922e-09
1.44948e-08
-7.56842e-09
3.9922e-09
-2.0907e-09
-7.56842e-09
3.93779e-09
-2.0907e-09
1.08384e-09
3.93779e-09
-2.0292e-09
4.68532e-06
-2.1914e-06
-9.39818e-06
4.36742e-06
-2.1914e-06
9.03503e-07
4.36742e-06
-1.82598e-06
9.03503e-07
-2.60322e-07
-1.82599e-06
5.50915e-07
-2.60322e-07
1.89103e-07
5.50914e-07
-3.86997e-07
1.89103e-07
-1.01843e-07
-3.86997e-07
2.09115e-07
-1.01843e-07
5.34647e-08
2.09115e-07
-1.10115e-07
5.34647e-08
-2.77345e-08
-1.10115e-07
5.71748e-08
-2.77345e-08
1.44948e-08
5.71748e-08
-2.96712e-08
1.44948e-08
-7.56843e-09
-2.96713e-08
1.55411e-08
-7.56842e-09
3.93779e-09
1.55411e-08
-8.04817e-09
3.93779e-09
-2.0292e-09
-8.04817e-09
4.18603e-09
2.15857e-05
1.6251e-05
-7.29327e-05
-4.51276e-05
1.6251e-05
-9.39818e-06
-4.51276e-05
2.93305e-05
-9.39818e-06
4.36742e-06
2.93305e-05
-1.37389e-05
4.36742e-06
-1.82599e-06
-1.37389e-05
6.27166e-06
-1.82599e-06
5.50915e-07
6.27166e-06
-2.53275e-06
5.50915e-07
-3.86997e-07
-2.53275e-06
1.52257e-06
-3.86997e-07
2.09114e-07
1.52257e-06
-8.11432e-07
2.09115e-07
-1.10115e-07
-8.11432e-07
4.27458e-07
-1.10115e-07
5.71748e-08
4.27458e-07
-2.23133e-07
5.71748e-08
-2.96712e-08
-2.23133e-07
1.16645e-07
-2.96712e-08
1.55411e-08
1.16645e-07
-6.11737e-08
1.55411e-08
-8.04817e-09
-6.11737e-08
3.20457e-08
-8.04817e-09
4.18603e-09
3.20457e-08
-1.67536e-08
-7.29327e-05
-4.51276e-05
2.96094e-05
3.98316e-05
-4.51276e-05
2.93305e-05
3.98316e-05
-1.75418e-05
2.93305e-05
2.30869e-05
-1.75418e-05
-1.41134e-05
2.30869e-05
-1.37389e-05
-1.41134e-05
6.2066e-06
-1.37389e-05
6.27166e-06
6.2066e-06
-1.27716e-06
6.27166e-06
-2.53275e-06
-1.27716e-06
-8.18627e-07
-2.53275e-06
1.52257e-06
-8.18628e-07
6.4287e-08
1.52257e-06
-8.11432e-07
6.42869e-08
-6.32427e-09
-8.11432e-07
4.27458e-07
-6.32429e-09
1.42362e-09
4.27458e-07
-2.23133e-07
1.4236e-09
-1.30013e-09
-2.23133e-07
1.16645e-07
-1.30013e-09
1.29359e-09
1.16645e-07
-6.11737e-08
1.29358e-09
-7.25168e-10
-6.11737e-08
3.20457e-08
-7.25167e-10
4.2691e-10
3.20456e-08
-1.67536e-08
4.2691e-10
-2.96638e-10
-1.75418e-05
-1.41134e-05
6.85144e-06
2.8699e-05
-1.41134e-05
6.2066e-06
2.8699e-05
-1.16525e-05
6.2066e-06
6.84342e-06
-1.16525e-05
-7.5918e-06
6.84342e-06
-1.27716e-06
-7.5918e-06
2.44886e-07
-1.27716e-06
-8.18627e-07
2.44889e-07
3.21922e-06
-8.18628e-07
6.42869e-08
3.21922e-06
-1.007e-06
6.4287e-08
-6.32426e-09
-1.007e-06
4.88399e-07
-6.32432e-09
1.42362e-09
4.88399e-07
-2.53656e-07
1.42363e-09
-1.30013e-09
-2.53656e-07
1.33551e-07
-1.30013e-09
1.29359e-09
1.33551e-07
-7.03519e-08
1.2936e-09
-7.25167e-10
-7.03519e-08
3.73326e-08
-7.25164e-10
4.26908e-10
3.73326e-08
-1.95597e-08
4.26908e-10
-2.96638e-10
-1.95597e-08
1.03761e-08
-1.16525e-05
-7.59181e-06
2.32851e-06
2.95215e-05
-7.59181e-06
2.44886e-07
2.95215e-05
-5.47465e-06
2.44887e-07
3.05186e-06
-5.47465e-06
-1.09516e-05
3.05186e-06
3.21922e-06
-1.09516e-05
-2.83966e-06
3.21922e-06
-1.007e-06
-2.83966e-06
2.86326e-07
-1.007e-06
4.88399e-07
2.86326e-07
-6.68356e-08
4.88399e-07
-2.53656e-07
-6.68357e-08
2.88166e-08
-2.53656e-07
1.33551e-07
2.88167e-08
-1.60771e-08
1.33551e-07
-7.03519e-08
-1.60771e-08
1.03641e-08
-7.03519e-08
3.73326e-08
1.03642e-08
-6.07376e-09
3.73326e-08
-1.95597e-08
-6.07375e-09
3.14278e-09
-5.47465e-06
-1.09516e-05
2.58162e-06
2.94317e-05
-1.09516e-05
-2.83966e-06
2.94317e-05
2.21515e-06
-2.83966e-06
2.86326e-07
2.21515e-06
2.04421e-06
2.86326e-07
-6.68354e-08
2.04421e-06
-1.34247e-06
-6.68355e-08
2.88166e-08
-1.34247e-06
7.32841e-07
2.88167e-08
-1.60771e-08
7.32841e-07
-3.81122e-07
-1.60771e-08
1.03642e-08
-3.81122e-07
1.99714e-07
1.03641e-08
-6.07375e-09
1.99714e-07
-1.03673e-07
-6.07375e-09
3.14278e-09
-1.03673e-07
5.42156e-08
2.21515e-06
2.04421e-06
-2.67825e-06
-4.62383e-06
2.04421e-06
-1.34247e-06
-4.62383e-06
2.96767e-06
-1.34247e-06
7.32841e-07
2.96767e-06
-1.61725e-06
7.32842e-07
-3.81122e-07
-1.61725e-06
8.4483e-07
-3.81122e-07
1.99714e-07
8.4483e-07
-4.40108e-07
1.99714e-07
-1.03673e-07
-4.40108e-07
2.29538e-07
-1.03673e-07
5.42157e-08
2.29538e-07
-1.20152e-07
-2.67826e-06
-4.62383e-06
3.41239e-06
9.26042e-06
-4.62382e-06
2.96767e-06
9.26042e-06
-5.88335e-06
2.96767e-06
-1.61725e-06
-5.88335e-06
3.17903e-06
-1.61725e-06
8.4483e-07
3.17903e-06
-1.66485e-06
8.4483e-07
-4.40108e-07
-1.66485e-06
8.74772e-07
-4.40108e-07
2.29538e-07
8.74771e-07
-4.53364e-07
3.4124e-06
9.26042e-06
-1.36988e-05
-3.21456e-05
9.26042e-06
-5.88335e-06
-3.21456e-05
2.09936e-05
-5.88335e-06
3.17903e-06
2.09936e-05
-1.14411e-05
3.17903e-06
-1.66485e-06
-1.14411e-05
6.01293e-06
-1.66485e-06
8.74772e-07
6.01293e-06
-3.13532e-06
8.74771e-07
-4.53364e-07
-3.13532e-06
1.63901e-06
-1.36988e-05
-3.21456e-05
6.72733e-05
0.000109153
-3.21456e-05
2.09936e-05
0.000109153
-7.36367e-05
2.09936e-05
-1.14411e-05
-7.36367e-05
4.01761e-05
-1.14411e-05
6.01293e-06
4.01761e-05
-2.12243e-05
6.01293e-06
-3.13532e-06
-2.12243e-05
1.11284e-05
-3.13532e-06
1.63901e-06
1.11284e-05
-5.83465e-06
0.999574
0.997586
1.00027
0.999569
0.997586
1.00321
0.999569
1.00138
6.72733e-05
0.000109153
5.53539e-05
7.87386e-05
0.000109153
-7.36367e-05
7.87386e-05
-5.46944e-05
-7.36367e-05
4.01761e-05
-5.46944e-05
2.99153e-05
4.01761e-05
-2.12243e-05
2.99153e-05
-1.58775e-05
-2.12243e-05
1.11284e-05
-1.58775e-05
8.33158e-06
1.00027
0.999569
0.999939
0.999419
0.999569
1.00138
0.999419
1.00004
5.5354e-05
7.87386e-05
4.48081e-05
6.55231e-05
7.87386e-05
-5.46944e-05
6.55231e-05
-4.49988e-05
-5.46944e-05
2.99153e-05
-4.49988e-05
2.45628e-05
2.99153e-05
-1.58775e-05
2.45628e-05
-1.30418e-05
-1.58775e-05
8.33158e-06
-1.30418e-05
6.85665e-06
1.00005
0.999939
0.99955
1.00109
0.999939
1.00004
1.00109
1.00013
4.48081e-05
6.55231e-05
3.06395e-05
4.26611e-05
6.55231e-05
-4.49988e-05
4.26611e-05
-2.95278e-05
-4.49988e-05
2.45628e-05
-2.95278e-05
1.62547e-05
2.45628e-05
-1.30418e-05
1.62547e-05
-8.57077e-06
-1.30418e-05
6.85664e-06
-8.57077e-06
4.4679e-06
3.06395e-05
4.26611e-05
4.05001e-05
5.92707e-05
4.26611e-05
-2.95278e-05
5.92707e-05
-4.06229e-05
-2.95278e-05
1.62547e-05
-4.06229e-05
2.22574e-05
1.62547e-05
-8.57077e-06
2.22574e-05
-1.17604e-05
4.05001e-05
5.92707e-05
6.13486e-05
9.35983e-05
5.92707e-05
-4.06229e-05
9.35982e-05
-6.39819e-05
-4.06229e-05
2.22574e-05
-6.39819e-05
3.50879e-05
2.22574e-05
-1.17604e-05
3.50879e-05
-1.8623e-05
6.13486e-05
9.35982e-05
4.20354e-05
6.83574e-05
9.35983e-05
-6.3982e-05
6.83574e-05
-4.61628e-05
-6.39819e-05
3.5088e-05
-4.61628e-05
2.54074e-05
2.96094e-05
3.98316e-05
-7.10635e-06
-3.45735e-05
3.98316e-05
-1.75418e-05
-3.45735e-05
6.85144e-06
2.26611e-06
-7.10635e-06
-7.77587e-05
1.02358e-05
-7.77587e-05
1.02358e-05
0.000200148
-5.11477e-05
-7.10635e-06
-3.45735e-05
1.02358e-05
9.58881e-05
1.02358e-05
9.58881e-05
-5.11477e-05
-7.01871e-05
-3.45735e-05
6.85144e-06
9.58881e-05
-3.93454e-06
9.58881e-05
-3.93454e-06
-7.0187e-05
6.13807e-06
6.85144e-06
2.8699e-05
6.13807e-06
-2.81484e-05
2.8699e-05
-1.16525e-05
-2.81484e-05
2.32851e-06
0.000200148
-5.11477e-05
-0.000426272
0.000161577
-0.000426272
0.000161577
0.000874851
-0.000211046
0.00121131
-0.000426272
-0.000307488
0.000874851
-5.11477e-05
-7.0187e-05
0.000161577
-2.12717e-05
-7.01871e-05
6.13807e-06
-2.12717e-05
6.43727e-06
-2.12717e-05
6.43726e-06
8.255e-05
-2.79814e-05
0.000161577
-2.12717e-05
-0.000211046
8.25499e-05
6.13807e-06
-2.81484e-05
6.43726e-06
9.14267e-05
6.43726e-06
9.14267e-05
-2.79814e-05
-8.06157e-05
-2.81484e-05
2.32851e-06
9.14267e-05
-2.10693e-07
9.14267e-05
-2.10693e-07
-8.06157e-05
1.73158e-05
2.32851e-06
2.95215e-05
1.73158e-05
-3.59175e-05
2.95215e-05
-5.47465e-06
-3.59175e-05
2.58162e-06
0.0992017
0.0220772
0.584274
0.147934
-0.000307488
0.000874851
0.0220772
0.000293794
0.000874851
-0.000211046
0.000293793
0.000944298
0.000293794
0.000944298
0.0250931
0.00038574
0.0220772
0.000293793
0.147934
0.0250931
-0.000211046
8.255e-05
0.000944297
-0.000299547
8.255e-05
-2.79814e-05
-0.000299547
0.00017015
-0.000299547
0.00017015
0.000934983
-0.000381161
0.000944298
-0.000299547
0.000385739
0.000934983
-2.79814e-05
-8.06157e-05
0.00017015
-2.3226e-05
-8.06157e-05
1.73158e-05
-2.32261e-05
-6.66747e-06
-2.3226e-05
-6.66746e-06
0.0001706
-5.44688e-05
0.00017015
-2.3226e-05
-0.00038116
0.0001706
1.73158e-05
-3.59175e-05
-6.66746e-06
0.0001251
-6.66746e-06
0.0001251
-5.44688e-05
-9.72825e-05
-3.59175e-05
2.58162e-06
0.0001251
-9.17944e-06
0.0001251
-9.17944e-06
-9.72825e-05
2.0084e-05
2.58162e-06
2.94317e-05
2.0084e-05
-4.06087e-05
2.94317e-05
2.21515e-06
-4.06087e-05
-2.67826e-06
0.584274
0.147934
0.936793
0.635389
0.936793
0.635389
0.999866
0.93745
0.147934
0.0250931
0.635389
0.140589
0.0250931
0.00038574
0.140589
0.0203885
0.140589
0.0203885
0.561756
0.0844015
0.635389
0.140589
0.93745
0.561756
0.00038574
0.000934983
0.0203885
-0.0010055
0.000934983
-0.000381161
-0.0010055
0.00130592
-0.0010055
0.00130592
0.014429
-0.0033125
0.0203885
-0.0010055
0.0844015
0.014429
-0.00038116
0.0001706
0.00130592
-0.000586243
0.0001706
-5.44688e-05
-0.000586243
0.000277562
-0.000586243
0.000277562
0.00197525
-0.000969977
0.00130592
-0.000586243
-0.0033125
0.00197525
-5.44688e-05
-9.72825e-05
0.000277562
-6.49669e-05
-9.72826e-05
2.0084e-05
-6.49669e-05
1.62735e-05
-6.49669e-05
1.62735e-05
0.000446742
-0.000194566
0.000277562
-6.4967e-05
-0.000969977
0.000446742
2.0084e-05
-4.06087e-05
1.62735e-05
0.000122836
1.62735e-05
0.000122836
-0.000194566
-3.07328e-05
-4.06087e-05
-2.67826e-06
0.000122836
3.66218e-06
0.000122836
3.66218e-06
-3.07328e-05
3.4124e-06
0.999866
0.93745
0.99398
0.991247
0.99398
0.991247
1.00223
0.998013
0.93745
0.561756
0.991247
0.885246
0.561756
0.0844015
0.885246
0.361319
0.885246
0.361319
0.977653
0.716355
0.991247
0.885246
0.998013
0.977653
0.0844015
0.014429
0.361319
0.0323671
0.014429
-0.0033125
0.0323671
0.00698968
0.0323671
0.00698968
0.129249
0.0142621
0.361319
0.0323671
0.716355
0.129249
-0.0033125
0.00197525
0.00698968
-0.0023775
0.00197525
-0.000969977
-0.0023775
0.00127149
-0.0023775
0.00127149
-0.00296623
0.00179571
0.00698968
-0.0023775
0.0142621
-0.00296623
-0.000969977
0.000446742
0.00127149
-0.000619117
0.000446742
-0.000194566
-0.000619117
0.00029566
-0.000619117
0.00029566
-0.000873623
0.00040586
0.00127149
-0.000619117
0.00179571
-0.000873623
-0.000194566
-3.07328e-05
0.00029566
-9.84486e-05
0.00029566
-9.84486e-05
0.00040586
-9.75038e-05
-3.07328e-05
3.4124e-06
-9.84486e-05
-1.27602e-05
-9.84486e-05
-1.27602e-05
-9.75038e-05
-1.36988e-05
0.999638
1.00223
0.999574
0.997586
1.00223
0.998013
0.997586
1.00321
0.998013
0.977653
1.00199
0.991634
1.00199
0.991634
1.00321
0.993635
0.977653
0.716355
0.991634
0.895093
0.991634
0.895093
0.993635
0.966606
0.716355
0.129249
0.895093
0.319433
0.129249
0.0142621
0.319433
0.0202988
0.319433
0.0202988
0.560363
0.0548723
0.895093
0.319433
0.966606
0.560363
0.0142621
-0.00296623
0.0202988
0.00536823
-0.00296624
0.00179571
0.00536823
-0.00210763
0.00536823
-0.00210763
0.0126756
-0.00510177
0.0202988
0.00536823
0.0548723
0.0126756
0.00179571
-0.000873623
-0.00210763
0.00108159
-0.000873623
0.00040586
0.00108159
-0.000505565
0.00108159
-0.000505565
0.00267405
-0.00127556
-0.00210763
0.00108159
-0.00510177
0.00267405
0.00040586
-9.75037e-05
-0.000505565
0.000129639
-0.000505565
0.000129639
-0.00127556
0.000492973
-9.75037e-05
-1.36988e-05
0.000129639
2.58794e-05
0.000129639
2.58794e-05
0.000492973
6.72733e-05
1.00321
0.993635
1.00262
0.995731
1.00262
0.995731
1.00138
0.998419
0.993635
0.966606
0.99573
0.992028
0.99573
0.992028
0.998419
0.997683
0.966606
0.560363
0.992028
0.720031
0.560363
0.0548723
0.720031
0.102604
0.720031
0.102604
0.793803
0.13493
0.992028
0.720031
0.997683
0.793803
0.0548723
0.0126756
0.102604
0.0137448
0.0126756
-0.00510177
0.0137448
-0.0048623
0.0137448
-0.0048623
0.013465
-0.00393884
0.102604
0.0137448
0.13493
0.013465
-0.00510177
0.00267405
-0.00486229
0.00260284
0.00267405
-0.00127556
0.00260284
-0.00124427
0.00260284
-0.00124427
0.00216129
-0.000997437
-0.0048623
0.00260284
-0.00393884
0.00216129
-0.00127556
0.000492973
-0.00124427
0.000542075
-0.00124427
0.000542075
-0.000997437
0.000341607
0.000492973
6.72733e-05
0.000542075
7.06136e-05
0.000542075
7.06136e-05
0.000341607
5.5354e-05
1.00138
0.998419
1.00049
1.00001
1.00049
1.00001
1.00004
1.00003
0.998419
0.997683
1.00001
0.996654
1.00001
0.996654
1.00003
0.996233
0.997683
0.793803
0.996654
0.810126
0.793803
0.13493
0.810126
0.15034
0.810126
0.15034
0.8391
0.158324
0.996654
0.810126
0.996233
0.8391
0.13493
0.013465
0.15034
0.0125984
0.013465
-0.00393884
0.0125984
-0.0030818
0.0125984
-0.0030818
0.0131104
-0.00316265
0.15034
0.0125984
0.158324
0.0131104
-0.00393884
0.00216129
-0.0030818
0.00168428
0.00216129
-0.000997437
0.00168428
-0.000817269
0.00168428
-0.00081727
0.00173722
-0.000810397
-0.0030818
0.00168428
-0.00316265
0.00173722
-0.000997437
0.000341607
-0.000817269
0.000329754
-0.000817269
0.000329754
-0.000810398
0.000290889
0.000341607
5.5354e-05
0.000329754
4.81056e-05
0.000329754
4.81056e-05
0.000290888
4.48081e-05
1.00004
1.00003
0.999912
1.00225
0.999912
1.00225
1.00013
1.00329
1.00003
0.996233
1.00225
0.994908
1.00225
0.994908
1.00329
0.994178
0.996233
0.8391
0.994908
0.85914
0.8391
0.158324
0.85914
0.175366
0.85914
0.175366
0.863996
0.181452
0.994908
0.85914
0.994179
0.863996
0.158324
0.0131104
0.175366
0.0123503
0.0131104
-0.00316265
0.0123503
-0.00226664
0.0123503
-0.00226664
0.0120825
-0.00188751
0.175366
0.0123503
0.181452
0.0120825
-0.00316265
0.00173722
-0.00226664
0.00129213
0.00173722
-0.000810397
0.00129213
-0.000621488
0.00129213
-0.000621488
0.00110717
-0.000521049
-0.00226664
0.00129213
-0.00188751
0.00110717
-0.000810397
0.000290889
-0.000621488
0.0002761
-0.000621488
0.0002761
-0.000521049
0.000205718
0.000290888
4.48081e-05
0.0002761
3.71662e-05
0.0002761
3.71662e-05
0.000205718
3.06395e-05
1.00013
1.00329
1.00058
1.00005
1.00058
1.00005
1.00047
0.998915
1.00329
0.994179
1.00005
0.995225
1.00005
0.995225
0.998915
0.996525
0.994179
0.863996
0.995225
0.8594
0.863996
0.181452
0.8594
0.176071
0.8594
0.176071
0.839783
0.160558
0.995225
0.8594
0.996525
0.839783
0.181452
0.0120825
0.176071
0.0119144
0.0120825
-0.00188751
0.0119144
-0.00210429
0.0119144
-0.00210429
0.0130521
-0.00300694
0.176071
0.0119144
0.160558
0.0130521
-0.00188751
0.00110717
-0.00210429
0.00121125
0.00110717
-0.000521049
0.00121125
-0.000569027
0.00121125
-0.000569027
0.00167422
-0.000775234
-0.00210429
0.00121125
-0.00300694
0.00167422
-0.000521049
0.000205718
-0.000569027
0.000204371
-0.000569027
0.000204371
-0.000775234
0.000234732
0.000205718
3.06395e-05
0.000204371
3.21213e-05
0.000204371
3.21213e-05
0.000234732
4.05001e-05
0.839783
0.160558
0.813344
0.151677
0.160558
0.0130521
0.151677
0.0127823
0.0130521
-0.00300694
0.0127823
-0.00314057
0.0127823
-0.00314057
0.0134526
-0.004157
0.151677
0.0127823
0.131123
0.0134526
-0.00300694
0.00167422
-0.00314057
0.00173372
0.00167422
-0.000775234
0.00173372
-0.000839579
0.00173372
-0.000839579
0.00223518
-0.0010714
-0.00314057
0.00173372
-0.004157
0.00223518
-0.000775234
0.000234732
-0.00083958
0.000422105
-0.00083958
0.000422105
-0.0010714
0.000464665
0.000234732
4.05001e-05
0.000422105
5.21424e-05
0.000422105
5.21424e-05
0.000464665
6.13486e-05
-0.004157
0.00223518
-0.00525315
0.0028002
0.00223518
-0.0010714
0.0028002
-0.00127822
-0.0010714
0.000464665
-0.00127822
0.000357953
-0.00127822
0.000357953
-0.000824852
0.000291402
0.000464665
6.13486e-05
0.000357953
6.12056e-05
0.000357953
6.12056e-05
0.000291402
4.20354e-05
1.7499e-06
-4.83861e-06
1.81099e-06
-5.08878e-06
-4.83861e-06
-5.18123e-07
-5.08878e-06
-2.07536e-07
-5.18123e-07
6.02965e-05
-2.07533e-07
6.34552e-05
6.02965e-05
4.17551e-05
6.34552e-05
4.4399e-05
4.17551e-05
6.72643e-05
4.4399e-05
7.07444e-05
6.72643e-05
2.87296e-05
7.07444e-05
3.03471e-05
2.87296e-05
1.08864e-05
3.03471e-05
1.16065e-05
1.08864e-05
1.34741e-05
1.16065e-05
1.42952e-05
1.34741e-05
-8.57313e-06
1.42952e-05
-8.82143e-06
-8.57313e-06
-1.9885e-05
-8.82143e-06
-2.08908e-05
-1.9885e-05
7.82193e-06
-2.08908e-05
8.12343e-06
7.82193e-06
-3.78506e-06
8.12343e-06
-3.93237e-06
-3.78506e-06
2.01378e-06
-3.93238e-06
2.10375e-06
2.01378e-06
-8.49799e-07
2.10375e-06
-8.89045e-07
-8.49799e-07
3.93418e-07
-8.89044e-07
4.15161e-07
1.81099e-06
-5.08878e-06
-2.98291e-06
8.45478e-06
-5.08878e-06
-2.07536e-07
8.45478e-06
-4.47779e-08
-2.07536e-07
6.34552e-05
-4.47748e-08
-0.000105186
6.34552e-05
4.4399e-05
-0.000105186
-7.43272e-05
4.4399e-05
7.07444e-05
-7.43272e-05
-0.000116975
7.07444e-05
3.03471e-05
-0.000116975
-5.07354e-05
3.03471e-05
1.16065e-05
-5.07354e-05
-1.92255e-05
1.16065e-05
1.42952e-05
-1.92255e-05
-2.37744e-05
1.42952e-05
-8.82143e-06
-2.37744e-05
1.45116e-05
-8.82143e-06
-2.08908e-05
1.45116e-05
3.45356e-05
-2.08908e-05
8.12343e-06
3.45356e-05
-1.331e-05
8.12343e-06
-3.93238e-06
-1.331e-05
6.42448e-06
-3.93237e-06
2.10375e-06
6.42448e-06
-3.4379e-06
2.10375e-06
-8.89045e-07
-3.4379e-06
1.44839e-06
-2.98291e-06
8.45478e-06
5.20787e-06
-1.48911e-05
8.45478e-06
-4.47779e-08
-1.48911e-05
4.49341e-07
-4.47739e-08
-0.000105186
4.49339e-07
0.000184606
-0.000105186
-7.43272e-05
0.000184606
0.000130488
-7.43272e-05
-0.000116975
0.000130488
0.00020615
-0.000116975
-5.07354e-05
0.00020615
8.88999e-05
-5.07354e-05
-1.92255e-05
8.88999e-05
3.37662e-05
-1.92255e-05
-2.37744e-05
3.37662e-05
4.21075e-05
-2.37744e-05
1.45116e-05
4.21075e-05
-2.50858e-05
1.45116e-05
3.45356e-05
-2.50858e-05
-6.02562e-05
3.45356e-05
-1.331e-05
-6.02562e-05
2.31917e-05
-1.331e-05
6.42448e-06
2.31917e-05
-1.12543e-05
6.42448e-06
-3.4379e-06
-1.12543e-05
6.00088e-06
-3.4379e-06
1.44839e-06
6.00088e-06
-2.51893e-06
-1.48911e-05
4.4933e-07
2.78946e-05
-1.40113e-06
4.49335e-07
0.000184606
-1.40112e-06
-0.000342742
0.000184606
0.000130488
-0.000342742
-0.000244217
0.000130488
0.00020615
-0.000244217
-0.000383096
0.00020615
8.88999e-05
-0.000383096
-0.000165368
8.88999e-05
3.37662e-05
-0.000165368
-6.33396e-05
3.37662e-05
4.21075e-05
-6.33396e-05
-7.8424e-05
4.21075e-05
-2.50858e-05
-7.8424e-05
4.6289e-05