# vtk DataFile Version 2.0
Hex test
ASCII
DATASET UNSTRUCTURED_GRID
POINTS 8652 float
-12 18 0
-12 20 0
-8.16667 18 0
-8.16667 20 0
-12 20 0
-12 22 0
-8.16667 20 0
-8.16667 22 0
-12 22 0
-12 24 0
-8.16667 22 0
-8.16667 24 0
-12 24 0
-12 26 0
-8.16667 24 0
-8.16667 26 0
-12 26 0
-12 28 0
-8.16667 26 0
-8.16667 28 0
-12 28 0
-12 30 0
-8.16667 28 0
-8.16667 30 0
-12 30 0
-12 32 0
-8.16667 30 0
-8.16667 32 0
-12 32 0
-12 34 0
-8.16667 32 0
-8.16667 34 0
-8.16667 18 0
-8.16667 20 0
-6 18 0
-6 20 0
-8.16667 20 0
-8.16667 22 0
-6 20 0
-6 22 0
-8.16667 22 0
-8.16667 24 0
-6 22 0
-6 24 0
-8.16667 24 0
-8.16667 26 0
-6 24 0
-6 26 0
-8.16667 26 0
-8.16667 28 0
-6 26 0
-6 28 0
-8.16667 28 0
-8.16667 30 0
-6 28 0
-6 30 0
-8.16667 30 0
-8.16667 32 0
-6 30 0
-6 32 0
-8.16667 32 0
-8.16667 34 0
-6 32 0
-6 34 0
-6 18 0
-6 20 0
-4 18 0
-4 20 0
-6 20 0
-6 22 0
-4 20 0
-4 22 0
-6 22 0
-6 24 0
-4 22 0
-4 24 0
-6 24 0
-6 26 0
-4 24 0
-4 26 0
-6 26 0
-6 28 0
-4 26 0
-4 28 0
-6 28 0
-6 30 0
-4 28 0
-4 30 0
-6 30 0
-6 32 0
-4 30 0
-4 32 0
-6 32 0
-6 34 0
-4 32 0
-4 34 0
-4 18 0
-4 20 0
-2 18 0
-2 20 0
-4 20 0
-4 22 0
-2 20 0
-2 22 0
-4 22 0
-4 24 0
-2 22 0
-2 24 0
-4 24 0
-4 26 0
-2 24 0
-2 26 0
-4 26 0
-4 28 0
-2 26 0
-2 28 0
-4 28 0
-4 30 0
-2 28 0
-2 30 0
-4 30 0
-4 32 0
-2 30 0
-2 32 0
-4 32 0
-4 34 0
-2 32 0
-2 34 0
-2 18 0
-2 20 0
-2.77556e-17 18 0
-5.55112e-17 20 0
-2 20 0
-2 22 0
-2.77556e-17 20 0
-5.55112e-17 22 0
-2 22 0
-2 24 0
-2.77556e-17 22 0
-5.55112e-17 24 0
-2 24 0
-2 26 0
-2.77556e-17 24 0
-5.55112e-17 26 0
-2 26 0
-2 28 0
-2.77556e-17 26 0
-5.55112e-17 28 0
-2 28 0
-2 30 0
-2.77556e-17 28 0
-5.55112e-17 30 0
-2 30 0
-2 32 0
-2.77556e-17 30 0
-5.55112e-17 32 0
-2 32 0
-2 34 0
-2.77556e-17 32 0
-5.55112e-17 34 0
2.77556e-17 18 0
2.42861e-17 19 0
2 18 0
2 19 0
2.42861e-17 19 0
2.77556e-17 20 0
2 19 0
2 20 0
2.77556e-17 20 0
2.42861e-17 21 0
2 20 0
2 21 0
2.42861e-17 21 0
2.77556e-17 22 0
2 21 0
2 22 0
2.77556e-17 22 0
2.42861e-17 23 0
2 22 0
2 23 0
2.42861e-17 23 0
2.77556e-17 24 0
2 23 0
2 24 0
2.77556e-17 24 0
2.42861e-17 25 0
2 24 0
2 25 0
2.42861e-17 25 0
2.77556e-17 26 0
2 25 0
2 26 0
2.77556e-17 26 0
2.42861e-17 27 0
2 26 0
2 27 0
2.42861e-17 27 0
2.77556e-17 28 0
2 27 0
2 28 0
2.77556e-17 28 0
2.42861e-17 29 0
2 28 0
2 29 0
2.42861e-17 29 0
2.77556e-17 30 0
2 29 0
2 30 0
2.77556e-17 30 0
2.42861e-17 31 0
2 30 0
2 31 0
2.42861e-17 31 0
2.77556e-17 32 0
2 31 0
2 32 0
2.77556e-17 32 0
2.42861e-17 33 0
2 32 0
2 33 0
2.42861e-17 33 0
2.77556e-17 34 0
2 33 0
2 34 0
2 18 0
2 19 0
4 18 0
4 19 0
2 19 0
2 20 0
4 19 0
4 20 0
2 20 0
2 21 0
4 20 0
4 21 0
2 21 0
2 22 0
4 21 0
4 22 0
2 22 0
2 23 0
4 22 0
4 23 0
2 23 0
2 24 0
4 23 0
4 24 0
2 24 0
2 25 0
4 24 0
4 25 0
2 25 0
2 26 0
4 25 0
4 26 0
2 26 0
2 27 0
4 26 0
4 27 0
2 27 0
2 28 0
4 27 0
4 28 0
2 28 0
2 29 0
4 28 0
4 29 0
2 29 0
2 30 0
4 29 0
4 30 0
2 30 0
2 31 0
4 30 0
4 31 0
2 31 0
2 32 0
4 31 0
4 32 0
2 32 0
2 33 0
4 32 0
4 33 0
2 33 0
2 34 0
4 33 0
4 34 0
4 18 0
4 19 0
6 18 0
6 19 0
4 19 0
4 20 0
6 19 0
6 20 0
4 20 0
4 21 0
6 20 0
6 21 0
4 21 0
4 22 0
6 21 0
6 22 0
4 22 0
4 23 0
6 22 0
6 23 0
4 23 0
4 24 0
6 23 0
6 24 0
4 24 0
4 25 0
6 24 0
6 25 0
4 25 0
4 26 0
6 25 0
6 26 0
4 26 0
4 27 0
6 26 0
6 27 0
4 27 0
4 28 0
6 27 0
6 28 0
4 28 0
4 29 0
6 28 0
6 29 0
4 29 0
4 30 0
6 29 0
6 30 0
4 30 0
4 31 0
6 30 0
6 31 0
4 31 0
4 32 0
6 31 0
6 32 0
4 32 0
4 33 0
6 32 0
6 33 0
4 33 0
4 34 0
6 33 0
6 34 0
6 20 0
6 21 0
7 20 0
7 21 0
6 21 0
6 22 0
7 21 0
7 22 0
6 22 0
6 23 0
7 22 0
7 23 0
6 23 0
6 24 0
7 23 0
7 24 0
7 23 0
7 24 0
8 23 0
8 24 0
7 22 0
7 23 0
8 22 0
8 23 0
6 24 0
6 25 0
7 24 0
7 25 0
6 25 0
6 26 0
7 25 0
7 26 0
7 25 0
7 26 0
8 25 0
8 26 0
7 24 0
7 25 0
8 24 0
8 25 0
6 26 0
6 27 0
7 26 0
7 27 0
6 27 0
6 28 0
7 27 0
7 28 0
7 27 0
7 28 0
8 27 0
8 28 0
7 26 0
7 27 0
8 26 0
8 27 0
6 28 0
6 29 0
7 28 0
7 29 0
6 29 0
6 30 0
7 29 0
7 30 0
7 29 0
7 30 0
8 29 0
8 30 0
7 28 0
7 29 0
8 28 0
8 29 0
6 30 0
6 31 0
7 30 0
7 31 0
6 31 0
6 32 0
7 31 0
7 32 0
7 31 0
7 32 0
8 31 0
8 32 0
7 30 0
7 31 0
8 30 0
8 31 0
6 32 0
6 33 0
7 32 0
7 33 0
6 33 0
6 34 0
7 33 0
7 34 0
7 33 0
7 34 0
8 33 0
8 34 0
7 32 0
7 33 0
8 32 0
8 33 0
8 24 0
8 25 0
9 24 0
9 25 0
8 25 0
8 26 0
9 25 0
9 26 0
9 25 0
9 26 0
10 25 0
10 26 0
8 26 0
8 27 0
9 26 0
9 27 0
8 27 0
8 28 0
9 27 0
9 28 0
9 27 0
9 28 0
10 27 0
10 28 0
9 26 0
9 27 0
10 26 0
10 27 0
8 28 0
8 29 0
9 28 0
9 29 0
8 29 0
8 30 0
9 29 0
9 30 0
9 29 0
9 30 0
10 29 0
10 30 0
9 28 0
9 29 0
10 28 0
10 29 0
8 30 0
8 31 0
9 30 0
9 31 0
8 31 0
8 32 0
9 31 0
9 32 0
9 30 0
9 31 0
10 30 0
10 31 0
10 28 0
10 29 0
11 28 0
11 29 0
10 29 0
10 30 0
11 29 0
11 30 0
10 27 0
10 28 0
11 27 0
11 28 0
14 28 0
14 29 0
16 28 0
16 29 0
14 29 0
14 30 0
16 29 0
16 30 0
14 30 0
14 31 0
16 30 0
16 31 0
14 31 0
14 32 0
16 31 0
16 32 0
16 28 0
16 29 0
18 28 0
18 29 0
16 29 0
16 30 0
18 29 0
18 30 0
16 30 0
16 31 0
18 30 0
18 31 0
16 31 0
16 32 0
18 31 0
18 32 0
16 32 0
16 33 0
18 32 0
18 33 0
16 33 0
16 34 0
18 33 0
18 34 0
18 28 0
18 30 0
20 28 0
20 30 0
18 30 0
18 32 0
20 30 0
20 32 0
18 32 0
18 33 0
20 32 0
20 33 0
18 33 0
18 34 0
20 33 0
20 34 0
18 34 0
18 35 0
20 34 0
20 35 0
18 35 0
18 36 0
20 35 0
20 36 0
20 28 0
20 30 0
22 28 0
22 30 0
20 30 0
20 32 0
22 30 0
22 32 0
20 32 0
20 34 0
22 32 0
22 34 0
20 34 0
20 35 0
22 34 0
22 35 0
20 35 0
20 36 0
22 35 0
22 36 0
22 28 0
22 30 0
24 28 0
24 30 0
22 30 0
22 32 0
24 30 0
24 32 0
22 32 0
22 34 0
24 32 0
24 34 0
22 34 0
22 36 0
24 34 0
24 36 0
24 40 0
24 41 0
25 40 0
25 41 0
24 39 0
24 40 0
25 39 0
25 40 0
22 40 0
22 41 0
23 40 0
23 41 0
22 41 0
22 42 0
23 41 0
23 42 0
23 41 0
23 42 0
24 41 0
24 42 0
23 40 0
23 41 0
24 40 0
24 41 0
22 38 0
22 39 0
23 38 0
23 39 0
22 39 0
22 40 0
23 39 0
23 40 0
23 39 0
23 40 0
24 39 0
24 40 0
23 38 0
23 39 0
24 38 0
24 39 0
22 36 0
22 37 0
23 36 0
23 37 0
23 36 0
23 37 0
24 36 0
24 37 0
22 37 0
22 38 0
23 37 0
23 38 0
23 37 0
23 38 0
24 37 0
24 38 0
20 40 0
20 41 0
21 40 0
21 41 0
20 41 0
20 42 0
21 41 0
21 42 0
21 41 0
21 42 0
22 41 0
22 42 0
21 40 0
21 41 0
22 40 0
22 41 0
20 38 0
20 39 0
21 38 0
21 39 0
20 39 0
20 40 0
21 39 0
21 40 0
21 39 0
21 40 0
22 39 0
22 40 0
21 38 0
21 39 0
22 38 0
22 39 0
20 36 0
20 37 0
21 36 0
21 37 0
21 36 0
21 37 0
22 36 0
22 37 0
20 37 0
20 38 0
21 37 0
21 38 0
21 37 0
21 38 0
22 37 0
22 38 0
18 40 0
18 41 0
19 40 0
19 41 0
19 40 0
19 41 0
20 40 0
20 41 0
18 38 0
18 39 0
19 38 0
19 39 0
18 39 0
18 40 0
19 39 0
19 40 0
19 39 0
19 40 0
20 39 0
20 40 0
19 38 0
19 39 0
20 38 0
20 39 0
18 36 0
18 37 0
19 36 0
19 37 0
19 36 0
19 37 0
20 36 0
20 37 0
18 37 0
18 38 0
19 37 0
19 38 0
19 37 0
19 38 0
20 37 0
20 38 0
16 40 0
16 41 0
17 40 0
17 41 0
17 40 0
17 41 0
18 40 0
18 41 0
16 38 0
16 39 0
17 38 0
17 39 0
16 39 0
16 40 0
17 39 0
17 40 0
17 39 0
17 40 0
18 39 0
18 40 0
17 38 0
17 39 0
18 38 0
18 39 0
16 36 0
16 37 0
17 36 0
17 37 0
17 36 0
17 37 0
18 36 0
18 37 0
16 37 0
16 38 0
17 37 0
17 38 0
17 37 0
17 38 0
18 37 0
18 38 0
16 34 0
16 35 0
18 34 0
18 35 0
16 35 0
16 36 0
18 35 0
18 36 0
15 40 0
15 41 0
16 40 0
16 41 0
14 38 0
14 39 0
15 38 0
15 39 0
14 39 0
14 40 0
15 39 0
15 40 0
15 39 0
15 40 0
16 39 0
16 40 0
15 38 0
15 39 0
16 38 0
16 39 0
14 36 0
14 37 0
15 36 0
15 37 0
14 37 0
14 38 0
15 37 0
15 38 0
15 37 0
15 38 0
16 37 0
16 38 0
15 36 0
15 37 0
16 36 0
16 37 0
14 34 0
14 35 0
15 34 0
15 35 0
15 34 0
15 35 0
16 34 0
16 35 0
14 35 0
14 36 0
15 35 0
15 36 0
15 35 0
15 36 0
16 35 0
16 36 0
14 32 0
14 33 0
16 32 0
16 33 0
14 33 0
14 34 0
16 33 0
16 34 0
12 38 0
12 39 0
13 38 0
13 39 0
12 39 0
12 40 0
13 39 0
13 40 0
13 39 0
13 40 0
14 39 0
14 40 0
13 38 0
13 39 0
14 38 0
14 39 0
12 36 0
12 37 0
13 36 0
13 37 0
12 37 0
12 38 0
13 37 0
13 38 0
13 37 0
13 38 0
14 37 0
14 38 0
13 36 0
13 37 0
14 36 0
14 37 0
12 34 0
12 35 0
13 34 0
13 35 0
12 35 0
12 36 0
13 35 0
13 36 0
13 35 0
13 36 0
14 35 0
14 36 0
13 34 0
13 35 0
14 34 0
14 35 0
12 32 0
12 33 0
13 32 0
13 33 0
13 32 0
13 33 0
14 32 0
14 33 0
12 33 0
12 34 0
13 33 0
13 34 0
13 33 0
13 34 0
14 33 0
14 34 0
12 30 0
12 31 0
14 30 0
14 31 0
12 31 0
12 32 0
14 31 0
14 32 0
12 28 0
12 29 0
14 28 0
14 29 0
12 29 0
12 30 0
14 29 0
14 30 0
7 34 0
7 35 0
8 34 0
8 35 0
11 39 0
11 40 0
12 39 0
12 40 0
11 38 0
11 39 0
12 38 0
12 39 0
10 36 0
10 37 0
11 36 0
11 37 0
10 37 0
10 38 0
11 37 0
11 38 0
11 37 0
11 38 0
12 37 0
12 38 0
11 36 0
11 37 0
12 36 0
12 37 0
10 34 0
10 35 0
11 34 0
11 35 0
10 35 0
10 36 0
11 35 0
11 36 0
11 35 0
11 36 0
12 35 0
12 36 0
11 34 0
11 35 0
12 34 0
12 35 0
10 32 0
10 33 0
11 32 0
11 33 0
10 33 0
10 34 0
11 33 0
11 34 0
11 33 0
11 34 0
12 33 0
12 34 0
11 32 0
11 33 0
12 32 0
12 33 0
9 31 0
9 32 0
10 31 0
10 32 0
8 32 0
8 33 0
9 32 0
9 33 0
8 33 0
8 34 0
9 33 0
9 34 0
9 33 0
9 34 0
10 33 0
10 34 0
9 32 0
9 33 0
10 32 0
10 33 0
8 34 0
8 35 0
9 34 0
9 35 0
8 35 0
8 36 0
9 35 0
9 36 0
9 35 0
9 36 0
10 35 0
10 36 0
9 34 0
9 35 0
10 34 0
10 35 0
9 37 0
9 38 0
10 37 0
10 38 0
9 36 0
9 37 0
10 36 0
10 37 0
10 30 0
10 31 0
11 30 0
11 31 0
10 31 0
10 32 0
11 31 0
11 32 0
11 31 0
11 32 0
12 31 0
12 32 0
11 30 0
11 31 0
12 30 0
12 31 0
11 29 0
11 30 0
12 29 0
12 30 0
4 48 0
4 50 0
6 48 0
6 50 0
4 50 0
4 52 0
6 50 0
6 52 0
4 52 0
4 54 0
6 52 0
6 54 0
4 54 0
4 56.1667 0
6 54 0
6 56.1667 0
4 56.1667 0
4 60 0
6 56.1667 0
6 60 0
6 44 0
6 45 0
8 44 0
8 45 0
6 45 0
6 46 0
8 45 0
8 46 0
6 46 0
6 48 0
8 46 0
8 48 0
6 48 0
6 50 0
8 48 0
8 50 0
6 50 0
6 52 0
8 50 0
8 52 0
6 52 0
6 54 0
8 52 0
8 54 0
6 54 0
6 56.1667 0
8 54 0
8 56.1667 0
6 56.1667 0
6 60 0
8 56.1667 0
8 60 0
8 46 0
8 47 0
10 46 0
10 47 0
8 47 0
8 48 0
10 47 0
10 48 0
8 48 0
8 50 0
10 48 0
10 50 0
8 50 0
8 52 0
10 50 0
10 52 0
8 52 0
8 54 0
10 52 0
10 54 0
8 54 0
8 56.1667 0
10 54 0
10 56.1667 0
8 56.1667 0
8 60 0
10 56.1667 0
10 60 0
10 46 0
10 47 0
12 46 0
12 47 0
10 47 0
10 48 0
12 47 0
12 48 0
10 48 0
10 50 0
12 48 0
12 50 0
10 50 0
10 52 0
12 50 0
12 52 0
10 52 0
10 54 0
12 52 0
12 54 0
10 54 0
10 56.1667 0
12 54 0
12 56.1667 0
10 56.1667 0
10 60 0
12 56.1667 0
12 60 0
12 48 0
12 50 0
14 48 0
14 50 0
12 50 0
12 52 0
14 50 0
14 52 0
12 52 0
12 54 0
[...]
POINT_DATA 8652
SCALARS phi float 1
LOOKUP_TABLE default
4.65911e-05
-1.96113e-05
-2.34013e-06
-9.75429e-05
-1.96113e-05
5.51211e-05
-9.75429e-05
4.41614e-05
5.51211e-05
3.18041e-05
4.41614e-05
1.60906e-05
3.18041e-05
4.50164e-05
1.60906e-05
3.72277e-05
4.50164e-05
1.46958e-05
3.72277e-05
-7.92262e-05
1.46958e-05
6.46091e-05
-7.92262e-05
4.03726e-05
6.46091e-05
6.34134e-06
4.03726e-05
2.35845e-05
6.34134e-06
-6.22303e-06
2.35845e-05
-1.93449e-05
-2.34013e-06
-9.75429e-05
-0.000139276
-6.0961e-05
-9.75429e-05
4.41614e-05
-6.0961e-05
-0.000106498
4.41614e-05
1.60906e-05
-0.000106498
-7.3818e-05
1.60906e-05
3.72277e-05
-7.3818e-05
-8.68968e-05
3.72277e-05
-7.92262e-05
-8.68968e-05
-0.000139084
-7.92262e-05
4.03726e-05
-0.000139084
-0.000143252
4.03726e-05
2.35845e-05
-0.000143252
1.32219e-05
2.35845e-05
-1.93449e-05
1.32219e-05
-5.57715e-06
-0.000139276
-6.0961e-05
0.000333979
0.000257627
-6.0961e-05
-0.000106498
0.000257627
0.000207601
-0.000106498
-7.3818e-05
0.000207601
0.000161489
-7.3818e-05
-8.68968e-05
0.000161489
0.0001667
-8.68968e-05
-0.000139084
0.0001667
0.000422459
-0.000139084
-0.000143252
0.000422459
0.000298661
-0.000143252
1.32219e-05
0.000298661
-5.81187e-05
1.32219e-05
-5.57715e-06
-5.81186e-05
3.33061e-05
0.000333979
0.000257627
-0.000713563
-0.000435145
0.000257627
0.000207601
-0.000435146
-0.000329985
0.000207601
0.000161489
-0.000329985
-0.000225959
0.000161489
0.0001667
-0.000225959
-0.000250419
0.0001667
0.000422459
-0.000250419
-0.000816808
0.000422459
0.000298661
-0.000816808
-0.00061626
0.000298661
-5.81187e-05
-0.00061626
0.000126589
-5.81187e-05
3.33061e-05
0.000126589
-0.000102083
-0.000713563
-0.000435145
0.000870784
0.000636507
-0.000435145
-0.000329985
0.000636507
0.000705825
-0.000329985
-0.000225959
0.000705825
0.00055599
-0.000225959
-0.000250419
0.00055599
0.00058291
-0.000250419
-0.000816808
0.00058291
0.00107658
-0.000816808
-0.00061626
0.00107658
0.000876671
-0.00061626
0.000126589
0.000876671
-0.000130479
0.000126589
-0.000102083
-0.000130479
3.35532e-05
0.000870784
0.000792605
-0.00128497
-0.00212634
0.000792605
0.000636507
-0.00212634
-0.000933965
0.000636507
0.000646809
-0.000933965
-0.00112171
0.000646809
0.000705825
-0.00112171
-0.00148992
0.000705824
0.000657703
-0.00148992
-0.00139297
0.000657703
0.00055599
-0.00139297
-0.00109207
0.00055599
0.000502519
-0.00109207
-0.000887862
0.000502519
0.00058291
-0.000887862
-0.00125775
0.00058291
0.000829355
-0.00125775
-0.00159807
0.000829355
0.00107658
-0.00159807
-0.00182105
0.00107658
0.00113018
-0.00182105
-0.0023032
0.00113018
0.000876671
-0.0023032
-0.00108982
0.000876671
0.000322078
-0.00108982
-0.000901421
0.000322078
-0.000130479
-0.000901421
0.000175624
-0.000130479
-0.000134421
0.000175625
0.000664953
-0.000134421
3.35532e-05
0.000664953
-0.000285425
-0.00128497
-0.00212634
0.00241258
0.00198592
-0.00212634
-0.000933965
0.00198592
0.00262663
-0.000933965
-0.00112171
0.00262663
0.00238862
-0.00112171
-0.00148992
0.00238862
0.0022007
-0.00148992
-0.00139297
0.00220069
0.00209397
-0.00139297
-0.00109207
0.00209397
0.00199776
-0.00109207
-0.000887863
0.00199776
0.00190505
-0.000887863
-0.00125775
0.00190505
0.00187996
-0.00125775
-0.00159807
0.00187996
0.0026086
-0.00159807
-0.00182105
0.0026086
0.00350655
-0.00182105
-0.0023032
0.00350655
0.00310888
-0.0023032
-0.00108982
0.00310888
0.00266351
-0.00108982
-0.000901421
0.00266351
0.000479044
-0.000901421
0.000175624
0.000479044
-0.000429813
0.000175625
0.000664953
-0.000429813
-0.000146795
0.000664953
-0.000285425
-0.000146795
-0.000254266
0.00241258
0.00198592
0.000143527
-0.00209858
0.00198592
0.00262664
-0.00209858
0.000253421
0.00262664
0.00238862
0.000253421
0.000939784
0.00238862
0.00220069
0.000939784
0.000674253
0.00220069
0.00209397
0.000674253
0.000665609
0.00209397
0.00199776
0.000665609
0.000755373
0.00199776
0.00190505
0.000755373
0.000834361
0.00190505
0.00187996
0.000834362
0.000505688
0.00187996
0.0026086
0.000505688
0.00104496
0.0026086
0.00350655
0.00104496
0.000913652
0.00350655
0.00310888
0.000913652
-0.000835054
0.00310888
0.00266351
-0.000835053
0.000957668
0.00266351
0.000479044
0.000957667
0.00047617
0.000479044
-0.000429813
0.00047617
7.02281e-05
-0.000429813
-0.000146795
7.02282e-05
0.000453509
-0.000146795
-0.000254266
0.000453509
-0.000285469
0.000253421
0.000939785
0.0158549
0.010972
0.000939784
0.000674253
0.010972
0.00723694
0.000674253
0.000665609
0.00723694
0.00701316
0.000665609
0.000755372
0.00701316
0.00688797
0.00701316
0.00688797
0.0236287
0.0218316
0.00723694
0.00701316
0.0256011
0.0236287
0.000755372
0.000834361
0.00688797
0.00689575
0.000834362
0.000505687
0.00689575
0.00609508
0.00689575
0.00609508
0.0205361
0.0199494
0.00688797
0.00689575
0.0218316
0.0205361
0.000505687
0.00104496
0.00609508
0.00962215
0.00104496
0.000913652
0.00962215
0.0170428
0.00962215
0.0170428
0.0298193
0.10384
0.00609508
0.00962215
0.0199494
0.0298193
0.000913653
-0.000835054
0.0170428
0.0160396
-0.000835054
0.000957669
0.0160396
0.0173667
0.0160396
0.0173667
0.139776
0.0592685
0.0170428
0.0160396
0.10384
0.139776
0.000957669
0.00047617
0.0173667
0.00196602
0.00047617
7.02282e-05
0.00196602
-0.00212718
0.00196602
-0.00212718
0.0123967
0.0127223
0.0173667
0.00196602
0.0592685
0.0123967
7.0228e-05
0.000453509
-0.00212718
0.00132373
0.000453509
-0.000285469
0.00132373
-0.00200341
0.00132373
-0.00200341
0.0107197
0.0103845
-0.00212718
0.00132373
0.0127223
0.0107197
0.0218316
0.0205361
0.416467
0.414587
0.0205361
0.0199494
0.414587
0.383261
0.414587
0.383261
0.941609
0.930665
0.0199494
0.0298193
0.383261
0.49483
0.0298193
0.10384
0.49483
0.787191
0.49483
0.787191
0.959087
0.994518
0.383261
0.49483
0.930665
0.959087
0.10384
0.139776
0.787191
0.808652
0.139776
0.0592685
0.808652
0.612447
0.808652
0.612447
0.989039
0.978623
0.787191
0.808652
0.994518
0.989039
0.0592685
0.0123967
0.612447
0.25264
0.0123967
0.0127223
0.25264
0.166758
0.612447
0.25264
0.978623
0.871967
0.994518
0.989039
1.0014
0.998278
0.989039
0.978623
0.998279
0.997946
0.959087
0.994518
0.987184
1.0014
0.999665
0.998997
0.999801
1.0018
0.998997
0.998085
1.0018
1.00275
0.998085
0.998181
1.00275
1.00219
0.998181
0.991841
1.00219
1.00574
0.999801
1.0018
0.999795
1.00025
1.0018
1.00275
1.00025
1.00036
1.00275
1.00219
1.00036
0.9998
1.00219
1.00574
0.9998
0.9996
1.00574
1.00439
0.9996
0.999424
1.00439
1.00212
0.999424
0.998589
0.999795
1.00036
1.00006
0.999921
1.00036
0.9996
0.999921
1.00131
0.9996
0.999424
1.00131
1.00228
0.999424
0.998589
1.00228
1.00297
0.998589
1.00576
1.00297
1.00273
1.00576
0.996971
1.00273
1.00034
1.00006
0.999921
1.00041
0.999647
0.999921
1.00131
0.999647
1.00045
1.00131
1.00297
1.00045
0.997259
1.00297
1.00273
0.997259
1.00776
1.00273
1.00034
1.00776
0.998328
1.00041
0.999647
1.00014
0.998727
0.999647
1.00045
0.998727
1.00125
1.00045
0.997259
1.00125
0.999249
0.997259
0.998328
0.999249
0.999603
0.0318896
0.0144112
0.0665353
0.0172117
0.517999
0.0318896
0.65746
0.0665353
0.0134878
0.00825596
0.0198635
0.00901225
0.00825596
-0.0043192
0.00901225
-0.00431323
0.00901225
-0.00431323
0.0144112
-0.00750982
0.0198635
0.00901225
0.0318896
0.0144112
0.935608
0.372011
0.93734
0.391787
0.372011
0.0134878
0.391787
0.0198635
0.391787
0.0198635
0.517999
0.0318896
0.93734
0.391787
0.962943
0.517999
0.998328
0.981389
0.999079
0.98596
0.999079
0.98596
0.999603
0.993761
0.981389
0.935608
0.98596
0.93734
0.98596
0.93734
0.993761
0.962943
0.0872934
0.0177473
0.0351676
0.0104296
0.0177474
-0.00854839
0.0104296
-0.00487078
0.0104296
-0.00487077
0.00825596
-0.0043192
0.0351676
0.0104296
0.0134878
0.00825596
0.981507
0.693891
0.944167
0.455326
0.693891
0.0872934
0.455326
0.0351676
0.455326
0.0351676
0.372011
0.0134878
0.944167
0.455326
0.935608
0.372011
1.00034
1.00102
0.998843
0.992644
0.998843
0.992644
0.998328
0.981389
1.00102
0.981507
0.992644
0.944167
0.992644
0.944167
0.981389
0.935608
0.337732
0.0397454
0.22473
0.0158267
0.22473
0.0158267
0.0872934
0.0177473
0.977968
0.828136
0.982712
0.845472
0.828136
0.337732
0.845472
0.22473
0.845472
0.22473
0.693891
0.0872934
0.982712
0.845472
0.981507
0.693891
0.996971
0.995209
1.0013
0.989622
1.0013
0.989622
1.00034
1.00102
0.995209
0.977968
0.989622
0.982712
0.989622
0.982712
1.00102
0.981507
0.163268
0.0147396
0.301938
0.0384828
0.301938
0.0384828
0.337732
0.0397454
0.666579
0.475395
0.900226
0.667181
0.475395
0.163268
0.667181
0.301938
0.667181
0.301938
0.828136
0.337732
0.900226
0.667181
0.977968
0.828136
0.986647
0.899029
0.986361
1.00592
0.986361
1.00592
0.996971
0.995209
0.899029
0.666579
1.00592
0.900227
1.00592
0.900227
0.995209
0.977968
1.00212
0.991462
0.998589
1.00576
0.991462
0.986647
1.00576
0.996971
0.0441066
0.00889255
0.163268
0.0147396
0.383256
0.0941439
0.437353
0.258637
0.0941439
0.0152114
0.258637
0.0441066
0.258637
0.0441066
0.475395
0.163268
0.437353
0.258637
0.666579
0.475395
0.913564
0.604699
0.991686
0.682462
0.604699
0.383256
0.682462
0.437353
0.682462
0.437353
0.899029
0.666579
0.991686
0.682462
0.986648
0.899029
1.00183
0.986952
1.0068
0.988937
1.0068
0.988937
1.00212
0.991462
0.986952
0.913564
0.988937
0.991686
0.988937
0.991686
0.991462
0.986648
0.991841
0.977987
1.00574
1.00439
0.977987
1.00183
1.00439
1.00212
0.021884
0.00720311
0.212832
0.030104
0.00720311
-0.00207518
0.030104
0.00559727
0.030104
0.00559727
0.0941439
0.0152114
0.212832
0.030104
0.383256
0.0941439
0.453366
0.19928
0.737148
0.494914
0.19928
0.021884
0.494914
0.212832
0.494914
0.212832
0.604699
0.383256
0.737148
0.494914
0.913564
0.604699
0.886196
0.757726
0.978509
0.964032
0.757726
0.453366
0.964032
0.737148
0.964032
0.737148
0.986952
0.913564
0.978509
0.964032
1.00183
0.986952
0.990838
0.950675
0.991143
1.00558
0.991143
1.00558
0.991841
0.977987
0.950675
0.886196
1.00558
0.978509
1.00558
0.978509
0.977987
1.00183
1.00505
0.998021
0.998085
0.998181
0.998021
0.990838
0.998181
0.991841
1.00212
1.0017
0.999665
0.998997
1.00171
1.00505
0.998997
0.998085
-0.00200341
0.000366493
0.0103845
0.00148609
0.000716105
0.000297113
0.00720311
-0.00207518
0.00839282
0.000716104
0.021884
0.00720311
0.0209459
0.0120512
0.194138
0.0182339
0.0120512
-0.00682305
0.0182339
0.00839282
0.0182339
0.00839282
0.199279
0.021884
0.194138
0.0182338
0.453366
0.19928
0.310276
0.163249
0.583266
0.500506
0.163249
0.0209459
0.500506
0.194138
0.500507
0.194138
0.757726
0.453366
0.583266
0.500507
0.886196
0.757726
0.753246
0.457931
0.967816
0.696869
0.457931
0.310276
0.696869
0.583266
0.696869
0.583266
0.950675
0.886196
0.967816
0.696869
0.990838
0.950675
0.25264
0.166758
0.871967
0.753246
0.0127223
0.0107197
0.166758
0.158008
0.0107197
0.0103845
0.158008
0.0640366
0.158008
0.0640366
0.457931
0.310276
0.166758
0.158008
0.753246
0.457931
0.0103845
0.00148609
0.0640366
0.0266647
0.00148609
-0.00076496
0.0266647
0.00445535
0.0266647
0.00445535
0.163249
0.0209459
0.0640366
0.0266647
0.310276
0.163249
-0.000870797
0.00183744
0.0120512
-0.00682305
0.00445535
-0.000870797
0.0209459
0.0120512
0.978623
0.871967
0.997946
0.978458
0.871967
0.753246
0.978458
0.967816
0.978458
0.967816
0.998021
0.990838
0.997946
0.978458
1.00505
0.998021
0.998278
0.997946
1.00171
1.00505
1.03547e-07
8.81923e-07
-1.34934e-05
-3.07245e-06
8.81923e-07
-2.76684e-07
-3.07245e-06
-6.76373e-07
-2.76684e-07
1.19135e-07
-6.76373e-07
5.36351e-07
1.19135e-07
-2.19089e-08
5.36351e-07
-6.24899e-07
-2.19089e-08
-5.87128e-08
-6.24899e-07
-4.3551e-07
4.92329e-06
-1.73304e-05
6.01881e-05
0.000107076
-1.73304e-05
5.60923e-06
0.000107076
4.42375e-05
5.60923e-06
-1.34934e-05
4.42375e-05
6.60694e-06
-1.34934e-05
-3.07245e-06
6.60694e-06
8.94541e-07
-3.07245e-06
-6.76373e-07
8.94541e-07
2.80229e-07
-6.76373e-07
5.36351e-07
2.80229e-07
-7.84396e-08
5.36351e-07
-6.24899e-07
-7.84397e-08
5.23958e-09
-6.24899e-07
-4.3551e-07
5.23958e-09
4.3468e-08
4.42375e-05
9.1829e-06
9.08983e-05
-1.17173e-05
9.1829e-06
6.60694e-06
-1.17173e-05
-3.53728e-06
6.60694e-06
8.94541e-07
-3.53728e-06
-2.8683e-06
8.94542e-07
2.80229e-07
-2.8683e-06
1.50238e-06
2.80229e-07
-7.84396e-08
1.50238e-06
-1.29408e-06
-7.84396e-08
5.23958e-09
-1.29408e-06
1.3009e-06
5.23955e-09
4.3468e-08
1.3009e-06
9.56077e-07
9.08983e-05
-1.17173e-05
-0.000289356
-0.000389878
-1.17173e-05
-3.53727e-06
-0.000389878
-0.000156609
-3.53728e-06
-2.8683e-06
-0.000156609
-2.76838e-05
-2.8683e-06
1.50238e-06
-2.76838e-05
8.94885e-06
1.50238e-06
-1.29408e-06
8.94885e-06
-2.70123e-06
-1.29408e-06
1.3009e-06
-2.70123e-06
-2.03761e-06
1.3009e-06
9.56077e-07
-2.03761e-06
6.17293e-08
-0.000156609
-2.76838e-05
0.000173635
4.64392e-05
-2.76838e-05
8.94885e-06
4.64392e-05
-1.31439e-05
8.94885e-06
-2.70123e-06
-1.31439e-05
2.16445e-06
-2.70123e-06
-2.03761e-06
2.16445e-06
6.832e-06
-2.03761e-06
6.17293e-08
6.832e-06
2.13627e-06
0.000173635
4.64392e-05
-0.000297629
-9.16022e-05
4.64392e-05
-1.31439e-05
-9.16022e-05
4.10189e-05
-1.31439e-05
2.16445e-06
4.10189e-05
-1.53273e-05
2.16445e-06
6.832e-06
-1.53273e-05
-2.60348e-06
6.832e-06
2.13627e-06
-2.60348e-06
3.87574e-06
-0.000297629
-9.16021e-05
0.00141409
4.93755e-05
-9.16021e-05
4.10189e-05
4.93755e-05
3.16176e-05
4.10189e-05
-1.53273e-05
3.16176e-05
9.21553e-06
-1.53273e-05
-2.60348e-06
9.21553e-06
-3.50517e-05
-2.60347e-06
3.87574e-06
-3.50517e-05
-1.47966e-05
0.00343605
0.00290839
0.00414407
0.00282262
0.00290839
0.00141409
0.00282262
0.00160862
0.00141409
4.93755e-05
0.00160862
4.82657e-05
4.93755e-05
3.16176e-05
4.82656e-05
5.27666e-05
3.16176e-05
9.21553e-06
5.27666e-05
-2.46219e-05
9.21553e-06
-3.50517e-05
-2.46219e-05
8.58708e-06
-3.50517e-05
-1.47966e-05
8.58708e-06
1.16368e-05
0.00414407
0.00282262
0.000304557
7.28923e-05
0.00282262
0.00160862
7.28923e-05
0.000170625
0.00160862
4.82656e-05
0.000170625
-7.6679e-05
4.82656e-05
5.27666e-05
-7.6679e-05
3.79637e-05
5.27666e-05
-2.46219e-05
3.79637e-05
-1.10904e-05
-2.46219e-05
8.58708e-06
-1.10904e-05
-6.49459e-06
8.58708e-06
1.16368e-05
-6.49459e-06
1.52139e-06
-0.00105921
0.00111735
-0.00167509
0.00224474
-0.0043192
0.0020461
-0.00431323
0.00214237
0.0020461
-0.000884822
0.00214237
-0.00105921
-0.0016108
0.00270357
-0.0011817
0.00162318
-0.0011817
0.00162318
-0.000884822
0.000257623
0.00270357
0.00414407
0.00162318
0.00195497
0.00162318
0.00195497
0.000257623
0.000304557
-0.00854839
0.00372137
-0.00487077
0.00246657
0.00372138
-0.0016108
0.00246657
-0.0011817
0.00246657
-0.0011817
0.0020461
-0.000884822
-0.00487078
0.00246657
-0.0043192
0.0020461
0.00112073
0.000724012
-0.000108923
0.0022819
-0.000108923
0.0022819
-0.0016108
0.00270357
0.000724012
0.00343605
0.0022819
0.00477133
0.0022819
0.00477133
0.00270357
0.00414407
0.00149773
-0.00137969
-0.00442892
0.00125239
-0.00137969
0.00112073
0.00125239
-0.000108923
0.00125239
-0.000108923
0.00372138
-0.0016108
-0.00442892
0.00125239
-0.00854839
0.00372138
0.0397454
0.00149773
0.0158267
-0.00442893
0.0158267
-0.00442892
0.0177473
-0.00854839
-0.000728081
-0.00103156
0.00343605
0.00290839
-0.00103156
-0.000297629
0.00290839
0.00141409
0.000175293
-0.000460937
0.00148761
-1.45504e-05
0.00148761
-1.45504e-05
0.00112073
0.000724012
-0.000460937
-0.000728081
-1.45504e-05
0.000699649
-1.45504e-05
0.000699649
0.000724012
0.00343605
0.00114951
-0.000251236
0.00574406
-0.00335676
-0.000251236
0.000175293
-0.00335676
0.00148761
-0.00335676
0.00148761
-0.00137969
0.00112073
0.00574406
-0.00335676
0.00149773
-0.00137969
0.0147396
0.00114951
0.0384828
0.00574406
0.0384828
0.00574406
0.0397454
0.00149773
0.00122804
0.00062919
0.000724975
-0.000301754
0.000724975
-0.000301754
-0.000728081
-0.00103156
0.00062919
0.000173635
-0.000301754
-0.000179644
-0.000301754
-0.000179644
-0.00103156
-0.000297629
0.000283902
0.000648816
-0.000759962
-0.000158242
0.000648816
0.00122804
-0.000158242
0.000724975
-0.000158242
0.000724975
-0.000460937
-0.000728081
-0.000759962
-0.000158242
0.000175293
-0.000460937
0.00210696
-0.00118056
-0.00348965
0.00196147
-0.00118056
0.000283902
0.00196147
-0.000759962
0.00196147
-0.000759962
-0.000251236
0.000175293
-0.00348965
0.00196147
0.00114951
-0.000251236
0.0152114
-0.00164063
0.0441066
0.00889255
-0.00164063
0.00210696
0.00889255
-0.00348965
0.00889255
-0.00348965
0.0147396
0.00114951
-0.000289356
-0.000389878
0.00122804
0.00062919
-0.000389878
-0.000156609
0.00062919
0.000173635
-0.000131428
-0.000322036
0.000107215
0.000188317
0.000107215
0.000188317
0.000283902
0.000648816
-0.000322036
-0.000289356
0.000188317
0.000499682
0.000188317
0.000499682
0.000648816
0.00122804
-0.000604218
0.000408493
0.00074182
-0.000879933
0.000408493
-0.000131428
-0.000879933
0.000107215
-0.000879933
0.000107215
-0.00118056
0.000283902
0.00074182
-0.000879933
0.00210696
-0.00118056
-0.00207518
0.00154427
0.00559727
-0.00185922
0.00154427
-0.000604217
-0.00185922
0.00074182
-0.00185922
0.00074182
-0.00164063
0.00210696
0.00559727
-0.00185922
0.0152114
-0.00164063
4.04938e-05
0.000114834
2.76804e-05
-0.000120661
2.76804e-05
-0.000120661
-0.000131428
-0.000322036
0.000114834
9.08983e-05
-0.000120661
-0.000266668
-0.000120661
-0.000266668
-0.000322036
-0.000289356
-0.000198345
0.000146016
0.000205406
0.00020839
0.000146016
4.04938e-05
0.00020839
2.76804e-05
0.00020839
2.76804e-05
0.000408493
-0.000131428
0.000205406
0.00020839
-0.000604217
0.000408493
-0.000234403
0.000205406
0.00154427
-0.000604217
0.000297113
-0.000234403
-0.00207518
0.00154426
-3.03811e-05
6.01881e-05
0.00024194
4.44234e-05
0.00024194
4.44234e-05
0.000146016
4.04938e-05
6.01882e-05
0.000107076
4.04938e-05
0.000114834
0.000107076
4.42375e-05
0.000114834
9.08983e-05
-6.22303e-06
1.61459e-08
-1.93449e-05
1.75771e-06
1.61459e-08
5.43429e-07
1.75771e-06
-1.56395e-06
5.43429e-07
5.45726e-07
-1.56395e-06
1.55214e-06
5.45726e-07
1.63213e-07
1.55214e-06
-5.23626e-07
1.63213e-07
-3.02447e-07
-5.23626e-07
1.56773e-07
-3.02447e-07
2.53883e-07
1.56773e-07
2.34288e-07
2.53883e-07
-7.42002e-08
2.34288e-07
-4.2154e-08
-7.42002e-08
7.41732e-08
-4.2154e-08
7.18736e-08
7.41732e-08
-3.36132e-08
7.18735e-08
-2.44963e-08
-3.36132e-08
1.1698e-08
-2.44963e-08
1.12228e-08
1.1698e-08
2.17007e-09
1.12228e-08
-1.5764e-09
2.17007e-09
-3.413e-09
-1.5764e-09
-4.51635e-09
-1.93449e-05
1.75771e-06
-5.57715e-06
2.66934e-06
1.75771e-06
-1.56395e-06
2.66935e-06
-3.32916e-06
-1.56395e-06
1.55214e-06
-3.32916e-06
4.46888e-07
1.55214e-06
-5.23626e-07
4.46888e-07
-1.11558e-06
-5.23626e-07
1.56773e-07
-1.11558e-06
1.0409e-06
1.56773e-07
2.34288e-07
1.04089e-06
-4.44648e-07
2.34288e-07
-4.2154e-08
-4.44648e-07
1.58792e-07
-4.21541e-08
7.18735e-08
1.58792e-07
-1.29907e-07
7.18735e-08
-2.44963e-08
-1.29907e-07
6.70638e-08
-2.44963e-08
1.12228e-08
6.70638e-08
-1.92679e-08
1.12228e-08
-1.5764e-09
-1.92679e-08
-9.34696e-09
-1.5764e-09
-4.51635e-09
-9.34697e-09
3.73124e-09
-5.57714e-06
2.66935e-06
3.33061e-05
-8.45161e-06
2.66934e-06
-3.32916e-06
-8.45161e-06
9.57181e-06
-3.32916e-06
4.46888e-07
9.57181e-06
-2.76322e-06
4.46888e-07
-1.11558e-06
-2.76322e-06
3.22259e-06
-1.11558e-06
1.04089e-06
3.22259e-06
-2.61854e-06
1.0409e-06
-4.44648e-07
-2.61854e-06
7.97455e-07
-4.44648e-07
1.58792e-07
7.97455e-07
-3.35161e-07
1.58792e-07
-1.29907e-07
-3.35161e-07
2.38767e-07
-1.29907e-07
6.70638e-08
2.38768e-07
-1.36078e-07
6.70638e-08
-1.92679e-08
-1.36078e-07
3.45021e-08
-1.92679e-08
-9.34696e-09
3.45021e-08
2.45025e-08
-9.34696e-09
3.73124e-09
2.45025e-08
-3.98918e-09
3.33061e-05
-8.45161e-06
-0.000102083
2.41514e-05
-8.45161e-06
9.57181e-06
2.41514e-05
-2.31549e-05
9.57181e-06
-2.76322e-06
-2.31549e-05
8.23336e-06
-2.76322e-06
3.22259e-06
8.23335e-06
-7.57556e-06
3.22259e-06
-2.61854e-06
-7.57556e-06
6.4004e-06
-2.61854e-06
7.97456e-07
6.4004e-06
-1.86413e-06
7.97455e-07
-3.35161e-07
-1.86413e-06
7.22142e-07
-3.35161e-07
2.38767e-07
7.22142e-07
-3.2403e-07
2.38767e-07
-1.36078e-07
-3.24029e-07
2.58626e-07
-1.36078e-07
3.45021e-08
2.58626e-07
-6.15636e-08
3.45022e-08
2.45025e-08
-6.15636e-08
-5.06427e-08
2.45025e-08
-3.98918e-09
-5.06427e-08
4.52174e-09
-0.000102083
2.41514e-05
3.35532e-05
-1.778e-05
2.41514e-05
-2.31549e-05
-1.778e-05
2.19334e-05
-2.31548e-05
8.23336e-06
2.19334e-05
-4.35863e-06
8.23336e-06
-7.57556e-06
-4.35863e-06
7.88234e-06