# vtk DataFile Version 2.0
Hex test
ASCII
DATASET UNSTRUCTURED_GRID
POINTS 9364 float
14 16 0
14 17 0
16 16 0
16 17 0
14 17 0
14 18 0
16 17 0
16 18 0
16 14 0
16 15 0
18 14 0
18 15 0
16 15 0
16 16 0
18 15 0
18 16 0
16 16 0
16 17 0
18 16 0
18 17 0
16 17 0
16 18 0
18 17 0
18 18 0
18 14 0
18 15 0
20 14 0
20 15 0
18 15 0
18 16 0
20 15 0
20 16 0
18 16 0
18 18 0
20 16 0
20 18 0
18 18 0
18 20 0
20 18 0
20 20 0
20 14 0
20 16 0
22 14 0
22 16 0
20 16 0
20 18 0
22 16 0
22 18 0
20 18 0
20 20 0
22 18 0
22 20 0
22 12 0
22 13 0
24 12 0
24 13 0
22 13 0
22 14 0
24 13 0
24 14 0
22 14 0
22 16 0
24 14 0
24 16 0
22 16 0
22 18 0
24 16 0
24 18 0
22 18 0
22 20 0
24 18 0
24 20 0
24 12 0
24 13 0
26 12 0
26 13 0
24 13 0
24 14 0
26 13 0
26 14 0
24 14 0
24 16 0
26 14 0
26 16 0
24 16 0
24 18 0
26 16 0
26 18 0
26 12 0
26 14 0
28 12 0
28 14 0
28 10 0
28 11 0
29 10 0
29 11 0
29 10 0
29 11 0
30 10 0
30 11 0
29 11 0
29 12 0
30 11 0
30 12 0
28 8 0
28 9 0
29 8 0
29 9 0
28 9 0
28 10 0
29 9 0
29 10 0
29 9 0
29 10 0
30 9 0
30 10 0
29 8 0
29 9 0
30 8 0
30 9 0
28 7 0
28 8 0
29 7 0
29 8 0
26 10 0
26 11 0
27 10 0
27 11 0
27 10 0
27 11 0
28 10 0
28 11 0
26 11 0
26 12 0
27 11 0
27 12 0
27 11 0
27 12 0
28 11 0
28 12 0
26 8 0
26 9 0
27 8 0
27 9 0
26 9 0
26 10 0
27 9 0
27 10 0
27 9 0
27 10 0
28 9 0
28 10 0
27 8 0
27 9 0
28 8 0
28 9 0
26 6 0
26 7 0
27 6 0
27 7 0
26 7 0
26 8 0
27 7 0
27 8 0
27 7 0
27 8 0
28 7 0
28 8 0
27 6 0
27 7 0
28 6 0
28 7 0
24 10 0
24 11 0
25 10 0
25 11 0
25 10 0
25 11 0
26 10 0
26 11 0
24 11 0
24 12 0
25 11 0
25 12 0
25 11 0
25 12 0
26 11 0
26 12 0
24 8 0
24 9 0
25 8 0
25 9 0
24 9 0
24 10 0
25 9 0
25 10 0
25 9 0
25 10 0
26 9 0
26 10 0
25 8 0
25 9 0
26 8 0
26 9 0
24 7 0
24 8 0
25 7 0
25 8 0
25 7 0
25 8 0
26 7 0
26 8 0
22 10 0
22 11 0
23 10 0
23 11 0
23 10 0
23 11 0
24 10 0
24 11 0
22 11 0
22 12 0
23 11 0
23 12 0
23 11 0
23 12 0
24 11 0
24 12 0
22 8 0
22 9 0
23 8 0
23 9 0
22 9 0
22 10 0
23 9 0
23 10 0
23 9 0
23 10 0
24 9 0
24 10 0
23 8 0
23 9 0
24 8 0
24 9 0
22 7 0
22 8 0
23 7 0
23 8 0
23 7 0
23 8 0
24 7 0
24 8 0
20 12 0
20 13 0
22 12 0
22 13 0
20 13 0
20 14 0
22 13 0
22 14 0
20 10 0
20 11 0
21 10 0
21 11 0
21 10 0
21 11 0
22 10 0
22 11 0
20 11 0
20 12 0
21 11 0
21 12 0
21 11 0
21 12 0
22 11 0
22 12 0
20 8 0
20 9 0
21 8 0
21 9 0
20 9 0
20 10 0
21 9 0
21 10 0
21 9 0
21 10 0
22 9 0
22 10 0
21 8 0
21 9 0
22 8 0
22 9 0
20 7 0
20 8 0
21 7 0
21 8 0
21 7 0
21 8 0
22 7 0
22 8 0
18 12 0
18 13 0
19 12 0
19 13 0
19 12 0
19 13 0
20 12 0
20 13 0
18 13 0
18 14 0
19 13 0
19 14 0
19 13 0
19 14 0
20 13 0
20 14 0
18 10 0
18 11 0
19 10 0
19 11 0
18 11 0
18 12 0
19 11 0
19 12 0
19 11 0
19 12 0
20 11 0
20 12 0
19 10 0
19 11 0
20 10 0
20 11 0
18 8 0
18 9 0
19 8 0
19 9 0
18 9 0
18 10 0
19 9 0
19 10 0
19 9 0
19 10 0
20 9 0
20 10 0
19 8 0
19 9 0
20 8 0
20 9 0
18 7 0
18 8 0
19 7 0
19 8 0
19 7 0
19 8 0
20 7 0
20 8 0
16 12 0
16 13 0
17 12 0
17 13 0
17 12 0
17 13 0
18 12 0
18 13 0
16 13 0
16 14 0
17 13 0
17 14 0
17 13 0
17 14 0
18 13 0
18 14 0
16 10 0
16 11 0
17 10 0
17 11 0
16 11 0
16 12 0
17 11 0
17 12 0
17 11 0
17 12 0
18 11 0
18 12 0
17 10 0
17 11 0
18 10 0
18 11 0
16 8 0
16 9 0
17 8 0
17 9 0
16 9 0
16 10 0
17 9 0
17 10 0
17 9 0
17 10 0
18 9 0
18 10 0
17 8 0
17 9 0
18 8 0
18 9 0
16 6 0
16 7 0
17 6 0
17 7 0
16 7 0
16 8 0
17 7 0
17 8 0
17 7 0
17 8 0
18 7 0
18 8 0
14 14 0
14 15 0
16 14 0
16 15 0
14 15 0
14 16 0
16 15 0
16 16 0
14 12 0
14 13 0
15 12 0
15 13 0
15 12 0
15 13 0
16 12 0
16 13 0
14 13 0
14 14 0
15 13 0
15 14 0
15 13 0
15 14 0
16 13 0
16 14 0
14 10 0
14 11 0
15 10 0
15 11 0
14 11 0
14 12 0
15 11 0
15 12 0
15 11 0
15 12 0
16 11 0
16 12 0
15 10 0
15 11 0
16 10 0
16 11 0
14 8 0
14 9 0
15 8 0
15 9 0
14 9 0
14 10 0
15 9 0
15 10 0
15 9 0
15 10 0
16 9 0
16 10 0
15 8 0
15 9 0
16 8 0
16 9 0
14 6 0
14 7 0
15 6 0
15 7 0
14 7 0
14 8 0
15 7 0
15 8 0
15 7 0
15 8 0
16 7 0
16 8 0
15 6 0
15 7 0
16 6 0
16 7 0
12 16 0
12 17 0
14 16 0
14 17 0
12 17 0
12 18 0
14 17 0
14 18 0
12 14 0
12 15 0
13 14 0
13 15 0
13 14 0
13 15 0
14 14 0
14 15 0
12 15 0
12 16 0
13 15 0
13 16 0
13 15 0
13 16 0
14 15 0
14 16 0
12 12 0
12 13 0
13 12 0
13 13 0
12 13 0
12 14 0
13 13 0
13 14 0
13 13 0
13 14 0
14 13 0
14 14 0
13 12 0
13 13 0
14 12 0
14 13 0
12 10 0
12 11 0
13 10 0
13 11 0
12 11 0
12 12 0
13 11 0
13 12 0
13 11 0
13 12 0
14 11 0
14 12 0
13 10 0
13 11 0
14 10 0
14 11 0
12 8 0
12 9 0
13 8 0
13 9 0
12 9 0
12 10 0
13 9 0
13 10 0
13 9 0
13 10 0
14 9 0
14 10 0
13 8 0
13 9 0
14 8 0
14 9 0
13 7 0
13 8 0
14 7 0
14 8 0
11 17 0
11 18 0
12 17 0
12 18 0
11 16 0
11 17 0
12 16 0
12 17 0
11 15 0
11 16 0
12 15 0
12 16 0
11 14 0
11 15 0
12 14 0
12 15 0
11 13 0
11 14 0
12 13 0
12 14 0
11 12 0
11 13 0
12 12 0
12 13 0
11 11 0
11 12 0
12 11 0
12 12 0
11 10 0
11 11 0
12 10 0
12 11 0
11 9 0
11 10 0
12 9 0
12 10 0
10 -18 0
10 -14.1667 0
12 -18 0
12 -14.1667 0
10 -14.1667 0
10 -12 0
12 -14.1667 0
12 -12 0
10 -12 0
10 -10 0
12 -12 0
12 -10 0
10 -10 0
10 -8 0
12 -10 0
12 -8 0
12 -18 0
12 -14.1667 0
14 -18 0
14 -14.1667 0
12 -14.1667 0
12 -12 0
14 -14.1667 0
14 -12 0
12 -12 0
12 -10 0
14 -12 0
14 -10 0
12 -10 0
12 -8 0
14 -10 0
14 -8 0
12 -8 0
12 -6 0
14 -8 0
14 -6 0
12 -6 0
12 -4 0
14 -6 0
14 -4 0
12 -4 0
12 -2 0
14 -4 0
14 -2 0
14 -18 0
14 -14.1667 0
16 -18 0
16 -14.1667 0
14 -14.1667 0
14 -12 0
16 -14.1667 0
16 -12 0
14 -12 0
14 -10 0
16 -12 0
16 -10 0
14 -10 0
14 -8 0
16 -10 0
16 -8 0
14 -8 0
14 -6 0
16 -8 0
16 -6 0
14 -6 0
14 -4 0
16 -6 0
16 -4 0
14 -4 0
14 -2 0
16 -4 0
16 -2 0
14 -2 0
14 6.93889e-18 0
16 -2 0
16 6.93889e-18 0
14 3.46945e-17 0
14 2 0
16 3.46945e-17 0
16 2 0
16 -18 0
16 -14.1667 0
18 -18 0
18 -14.1667 0
16 -14.1667 0
16 -12 0
18 -14.1667 0
18 -12 0
16 -12 0
16 -10 0
18 -12 0
18 -10 0
16 -10 0
16 -8 0
18 -10 0
18 -8 0
16 -8 0
16 -6 0
18 -8 0
18 -6 0
16 -6 0
16 -4 0
18 -6 0
18 -4 0
16 -4 0
16 -2 0
18 -4 0
18 -2 0
16 -2 0
16 6.93889e-18 0
18 -2 0
18 6.93889e-18 0
16 3.46945e-17 0
16 2 0
18 3.46945e-17 0
18 2 0
18 -18 0
18 -14.1667 0
20 -18 0
20 -14.1667 0
18 -14.1667 0
18 -12 0
20 -14.1667 0
20 -12 0
18 -12 0
18 -10 0
20 -12 0
20 -10 0
18 -10 0
18 -8 0
20 -10 0
20 -8 0
18 -8 0
18 -6 0
20 -8 0
20 -6 0
18 -6 0
18 -4 0
20 -6 0
20 -4 0
18 -4 0
18 -2 0
20 -4 0
20 -2 0
18 -2 0
18 6.93889e-18 0
20 -2 0
20 6.93889e-18 0
18 3.46945e-17 0
18 2 0
20 3.46945e-17 0
20 2 0
20 -18 0
20 -14.1667 0
22 -18 0
22 -14.1667 0
20 -14.1667 0
20 -12 0
22 -14.1667 0
22 -12 0
20 -12 0
20 -10 0
22 -12 0
22 -10 0
20 -10 0
20 -8 0
22 -10 0
22 -8 0
20 -8 0
20 -6 0
22 -8 0
22 -6 0
20 -6 0
20 -4 0
22 -6 0
22 -4 0
20 -4 0
20 -2 0
22 -4 0
22 -2 0
20 -2 0
20 6.93889e-18 0
22 -2 0
22 6.93889e-18 0
20 3.46945e-17 0
20 1 0
22 3.46945e-17 0
22 1 0
20 1 0
20 2 0
22 1 0
22 2 0
22 -18 0
22 -14.1667 0
24 -18 0
24 -14.1667 0
22 -14.1667 0
22 -12 0
24 -14.1667 0
24 -12 0
22 -12 0
22 -10 0
24 -12 0
24 -10 0
22 -10 0
22 -8 0
24 -10 0
24 -8 0
22 -8 0
22 -6 0
24 -8 0
24 -6 0
22 -6 0
22 -4 0
24 -6 0
24 -4 0
22 -4 0
22 -2 0
24 -4 0
24 -2 0
22 -2 0
22 1.11022e-16 0
24 -2 0
24 3.46945e-17 0
22 4.16334e-17 0
22 1 0
24 6.245e-17 0
24 1 0
22 1 0
22 2 0
24 1 0
24 2 0
24 -18 0
24 -14.1667 0
26 -18 0
26 -14.1667 0
24 -14.1667 0
24 -12 0
26 -14.1667 0
26 -12 0
24 -12 0
24 -10 0
26 -12 0
26 -10 0
24 -10 0
24 -8 0
26 -10 0
26 -8 0
24 -8 0
24 -6 0
26 -8 0
26 -6 0
24 -6 0
24 -4 0
26 -6 0
26 -4 0
24 -4 0
24 -2 0
26 -4 0
26 -2 0
24 -2 0
24 8.32667e-17 0
26 -2 0
26 3.46945e-17 0
26 -10 0
26 -8 0
28 -10 0
28 -8 0
26 -8 0
26 -6 0
28 -8 0
28 -6 0
26 -6 0
26 -4 0
28 -6 0
28 -4 0
26 -4 0
26 -2 0
28 -4 0
28 -2 0
26 -2 0
26 5.55112e-17 0
28 -2 0
28 3.46945e-17 0
28 -2 0
28 5.55112e-17 0
30 -2 0
30 3.46945e-17 0
28 1 0
28 2 0
29 1 0
29 2 0
26 4 0
26 5 0
27 4 0
27 5 0
26 5 0
26 6 0
27 5 0
27 6 0
27 5 0
27 6 0
28 5 0
28 6 0
27 4 0
27 5 0
28 4 0
28 5 0
26 2 0
26 3 0
27 2 0
27 3 0
26 3 0
26 4 0
27 3 0
27 4 0
27 3 0
27 4 0
28 3 0
28 4 0
27 2 0
27 3 0
28 2 0
28 3 0
26 3.46945e-17 0
26 1 0
27 -2.60209e-18 0
27 1 0
27 -2.60209e-18 0
27 1 0
28 3.46945e-17 0
28 1 0
26 1 0
26 2 0
27 1 0
27 2 0
27 1 0
27 2 0
28 1 0
28 2 0
24 6 0
24 7 0
25 6 0
25 7 0
25 6 0
25 7 0
26 6 0
26 7 0
24 4 0
24 5 0
25 4 0
25 5 0
24 5 0
24 6 0
25 5 0
25 6 0
25 5 0
25 6 0
26 5 0
26 6 0
25 4 0
25 5 0
26 4 0
26 5 0
24 2 0
24 3 0
25 2 0
25 3 0
25 2 0
25 3 0
26 2 0
26 3 0
24 3 0
24 4 0
25 3 0
25 4 0
25 3 0
25 4 0
26 3 0
26 4 0
24 4.16334e-17 0
24 1 0
26 3.46945e-17 0
26 1 0
24 1 0
24 2 0
26 1 0
26 2 0
22 6 0
22 7 0
23 6 0
23 7 0
23 6 0
23 7 0
24 6 0
24 7 0
22 4 0
22 5 0
23 4 0
23 5 0
22 5 0
22 6 0
23 5 0
23 6 0
23 5 0
23 6 0
24 5 0
24 6 0
23 4 0
23 5 0
24 4 0
24 5 0
22 2 0
22 3 0
23 2 0
23 3 0
23 2 0
23 3 0
24 2 0
24 3 0
22 3 0
22 4 0
23 3 0
23 4 0
23 3 0
23 4 0
24 3 0
24 4 0
20 6 0
20 7 0
21 6 0
21 7 0
21 6 0
21 7 0
22 6 0
22 7 0
20 4 0
20 5 0
21 4 0
21 5 0
20 5 0
20 6 0
21 5 0
21 6 0
21 5 0
21 6 0
22 5 0
22 6 0
21 4 0
21 5 0
22 4 0
22 5 0
20 2 0
20 3 0
21 2 0
21 3 0
21 2 0
21 3 0
22 2 0
22 3 0
20 3 0
20 4 0
21 3 0
21 4 0
21 3 0
21 4 0
22 3 0
22 4 0
18 6 0
18 7 0
19 6 0
19 7 0
19 6 0
19 7 0
20 6 0
20 7 0
18 4 0
18 5 0
19 4 0
19 5 0
18 5 0
18 6 0
19 5 0
19 6 0
19 5 0
19 6 0
20 5 0
20 6 0
19 4 0
19 5 0
20 4 0
20 5 0
18 2 0
18 3 0
19 2 0
19 3 0
19 2 0
19 3 0
20 2 0
20 3 0
18 3 0
18 4 0
19 3 0
19 4 0
19 3 0
19 4 0
20 3 0
20 4 0
17 6 0
17 7 0
18 6 0
18 7 0
16 4 0
16 5 0
17 4 0
17 5 0
16 5 0
16 6 0
17 5 0
17 6 0
17 5 0
17 6 0
18 5 0
18 6 0
17 4 0
17 5 0
18 4 0
18 5 0
16 2 0
16 3 0
17 2 0
17 3 0
17 2 0
17 3 0
18 2 0
18 3 0
16 3 0
16 4 0
17 3 0
17 4 0
17 3 0
17 4 0
18 3 0
18 4 0
14 4 0
14 5 0
15 4 0
15 5 0
15 5 0
15 6 0
16 5 0
16 6 0
15 4 0
15 5 0
16 4 0
16 5 0
14 2 0
14 3 0
15 2 0
15 3 0
15 2 0
15 3 0
16 2 0
16 3 0
14 3 0
14 4 0
15 3 0
15 4 0
15 3 0
15 4 0
16 3 0
16 4 0
-12 -18 0
-12 -14.1667 0
-8.16667 -18 0
-8.16667 -14.1667 0
-12 -14.1667 0
-12 -12 0
-8.16667 -14.1667 0
-8.16667 -12 0
-12 -12 0
-12 -10 0
-8.16667 -12 0
-8.16667 -10 0
-12 -10 0
-12 -8 0
-8.16667 -10 0
-8.16667 -8 0
-12 -8 0
-12 -6 0
-8.16667 -8 0
-8.16667 -6 0
-12 -6 0
-12 -4 0
-8.16667 -6 0
-8.16667 -4 0
-12 -4 0
-12 -2 0
-8.16667 -4 0
-8.16667 -2 0
-12 -2 0
-12 0 0
-8.16667 -2 0
-8.16667 0 0
-8.16667 -18 0
-8.16667 -14.1667 0
-6 -18 0
-6 -14.1667 0
[...]
POINT_DATA 9364
SCALARS phi float 1
LOOKUP_TABLE default
1.0001
0.999077
1.00044
0.999776
0.999077
0.999388
0.999776
1.00029
0.999265
0.999753
0.99996
0.999968
0.999753
1.00044
0.999968
1.00019
1.00044
0.999776
1.00019
0.999996
0.999776
1.00029
0.999996
0.999743
0.99996
0.999968
1.00011
0.999885
0.999968
1.00019
0.999885
1.00011
1.00019
0.999743
1.00011
1
0.999743
1.00007
1
0.999974
1.00011
1.00011
0.999584
0.999757
1.00011
1
0.999757
1.0003
1
0.999974
1.0003
0.999988
1.0051
0.99755
1.00071
1.00213
0.99755
0.999584
1.00213
1.00048
0.999584
0.999757
1.00048
0.999964
0.999757
1.0003
0.999964
0.99978
1.0003
0.999988
0.99978
0.999832
1.00071
1.00213
0.99947
1.00612
1.00213
1.00048
1.00612
0.999851
1.00048
0.999964
0.999851
1.00099
0.999964
0.99978
1.00099
0.999932
0.99947
0.999851
1.0013
1.00213
0.9792
0.9976
0.988581
0.998959
0.988581
0.998959
0.98078
0.996014
0.998959
1.00074
0.996014
1.00017
0.349626
0.827669
0.830256
0.966772
0.827669
0.9792
0.966772
0.988581
0.966772
0.988581
0.930657
0.98078
0.830256
0.966772
0.763884
0.930657
0.050549
0.349626
0.55758
0.830256
0.887841
0.987973
0.93229
0.997823
0.93229
0.997823
0.9792
0.9976
0.987973
0.99947
0.997823
1.00058
0.997823
1.00058
0.9976
1.0013
0.0181694
0.265847
0.0351742
0.42125
0.265847
0.887841
0.42125
0.93229
0.42125
0.93229
0.827669
0.9792
0.0351742
0.42125
0.349626
0.827669
-0.00434576
-0.00474175
0.00354058
0.0248092
-0.00474175
0.0181694
0.0248092
0.0351742
0.0248092
0.0351742
0.050549
0.349626
0.00354058
0.0248092
-0.00153073
0.050549
0.874236
0.990711
0.878459
0.988356
0.878459
0.988356
0.887841
0.987973
0.990711
1.00071
0.988356
0.999246
0.988356
0.999246
0.987973
0.99947
0.0143541
0.237867
0.00970045
0.247195
0.237867
0.874236
0.247195
0.878459
0.247195
0.878459
0.265847
0.887841
0.00970045
0.247195
0.0181694
0.265847
-0.000304626
0.0143541
0.00592502
0.00970045
0.00592502
0.00970045
-0.00474175
0.0181694
0.893907
0.985906
0.878238
0.985585
0.878238
0.985585
0.874236
0.990711
0.985906
1.0051
0.985585
1.00375
0.985585
1.00375
0.990711
1.00071
0.0202726
0.27999
0.0101583
0.246049
0.27999
0.893907
0.246049
0.878238
0.246049
0.878238
0.237867
0.874236
0.0101583
0.246049
0.0143541
0.237867
0.0040175
0.0202726
0.00259655
0.0101583
0.00259655
0.0101583
-0.000304626
0.0143541
0.999133
1.00028
1.0051
0.99755
1.00028
1.00011
0.99755
0.999584
0.986921
1.00043
0.95618
0.995969
0.95618
0.995969
0.893907
0.985906
1.00043
0.999133
0.995969
1.00229
0.995969
1.00229
0.985906
1.0051
0.505662
0.917908
0.103127
0.577566
0.917908
0.986921
0.577566
0.95618
0.577566
0.95618
0.27999
0.893907
0.103127
0.577566
0.0202726
0.27999
0.0734852
0.505662
0.0186386
0.103127
0.0186386
0.103127
0.0040175
0.0202726
0.998282
0.999188
0.998894
1.00067
0.998894
1.00067
0.999133
1.00028
0.999188
0.99996
1.00067
1.00017
1.00067
1.00017
1.00028
1.00011
0.98595
1.00098
0.993434
1.00222
1.00098
0.998282
1.00223
0.998894
1.00223
0.998894
1.00043
0.999133
0.993434
1.00222
0.986921
1.00043
0.517307
0.92472
0.6847
0.96682
0.92472
0.98595
0.96682
0.993434
0.96682
0.993434
0.917908
0.986921
0.6847
0.96682
0.505662
0.917908
0.0820531
0.517307
0.128977
0.6847
0.128977
0.684701
0.0734852
0.505662
0.990404
0.997128
0.997634
0.998686
0.997634
0.998686
0.998282
0.999188
0.997128
0.999265
0.998686
0.999683
0.998686
0.999683
0.999188
0.99996
0.81092
0.954777
0.964635
0.99167
0.954777
0.990404
0.99167
0.997634
0.99167
0.997634
1.00098
0.998282
0.964635
0.99167
0.98595
1.00098
0.0977773
0.430867
0.289873
0.799224
0.430867
0.81092
0.799224
0.964635
0.799224
0.964635
0.92472
0.98595
0.289873
0.799224
0.517307
0.92472
0.000382681
0.01746
0.00627844
0.0444592
0.01746
0.0977773
0.0444592
0.289873
0.0444592
0.289873
0.0820531
0.517307
0.997506
0.998277
0.999265
0.999753
0.998277
1.0001
0.999753
1.00044
0.951716
0.991888
0.973457
0.993655
0.973457
0.993655
0.990404
0.997128
0.991888
0.997506
0.993655
0.998579
0.993655
0.998579
0.997128
0.999265
0.156877
0.680816
0.305361
0.806171
0.680816
0.951716
0.806171
0.973457
0.806171
0.973457
0.954777
0.990404
0.305361
0.806171
0.81092
0.954777
0.0100271
0.0332544
0.0062215
0.054223
0.0332544
0.156877
0.054223
0.305361
0.054223
0.305361
0.430867
0.81092
0.0062215
0.054223
0.0977773
0.430867
-0.00118428
0.00189397
0.000602389
0.00113361
0.00189397
0.0100271
0.00113361
0.0062215
0.00113361
0.0062215
0.01746
0.0977773
0.000602389
0.00113361
0.000382681
0.01746
0.993282
0.99837
1.0001
0.999077
0.99837
0.999709
0.999077
0.999388
0.942824
0.973615
0.990631
0.991232
0.990631
0.991232
0.997506
0.998277
0.973615
0.993282
0.991232
0.998168
0.991232
0.998168
0.998277
1.0001
0.659233
0.871992
0.880135
0.971478
0.871992
0.942824
0.971478
0.990631
0.971478
0.990631
0.991888
0.997506
0.880135
0.971478
0.951716
0.991888
0.530602
0.570711
0.346844
0.685484
0.570711
0.659233
0.685484
0.880135
0.685484
0.880135
0.680816
0.951716
0.346844
0.685484
0.156876
0.680816
0.364148
0.483703
0.00744527
0.0708138
0.483703
0.530602
0.0708138
0.346844
0.0708138
0.346844
0.0332544
0.156876
0.00744528
0.0708138
0.0100271
0.0332544
0.0053075
0.00744528
0.00189397
0.0100271
0.987466
0.996732
0.99837
0.999709
0.962567
0.987466
0.993282
0.99837
0.852758
0.962567
0.973615
0.993282
0.75991
0.852758
0.942824
0.973615
0.65922
0.75991
0.871992
0.942824
0.519671
0.65922
0.659233
0.871992
0.496585
0.519671
0.570711
0.659233
0.556386
0.496585
0.530602
0.570711
0.605089
0.556386
0.483703
0.530602
3.89931e-06
3.3553e-05
5.18726e-07
4.97254e-06
3.3553e-05
3.62072e-05
4.97254e-06
5.33463e-06
3.62072e-05
-0.000120302
5.33463e-06
-1.7934e-05
-0.000120302
0.000250108
-1.7934e-05
3.88626e-05
5.18726e-07
4.97254e-06
2.56033e-08
1.61258e-07
4.97254e-06
5.33463e-06
1.61258e-07
1.84914e-07
5.33463e-06
-1.7934e-05
1.84914e-07
-4.54663e-07
-1.7934e-05
3.88626e-05
-4.54663e-07
9.63325e-07
3.88626e-05
-3.68427e-05
9.63326e-07
-9.87096e-07
-3.68427e-05
6.1477e-05
-9.87097e-07
2.08341e-06
6.1477e-05
-0.000105836
2.08341e-06
-6.33673e-06
2.56033e-08
1.61258e-07
-2.37608e-07
-2.85975e-08
1.61258e-07
1.84914e-07
-2.85976e-08
6.29406e-07
1.84914e-07
-4.54663e-07
6.29406e-07
-1.52757e-06
-4.54663e-07
9.63325e-07
-1.52757e-06
3.35907e-06
9.63324e-07
-9.87096e-07
3.35907e-06
-3.89892e-06
-9.87097e-07
2.08341e-06
-3.89892e-06
6.78993e-06
2.08341e-06
-6.33673e-06
6.78993e-06
-7.19647e-06
-6.33673e-06
7.23967e-06
-7.19646e-06
1.73008e-05
7.23966e-06
2.65008e-06
1.73008e-05
1.29281e-05
-2.37608e-07
-2.85976e-08
1.00013e-06
-1.13926e-06
-2.85975e-08
6.29406e-07
-1.13926e-06
-4.54449e-06
6.29406e-07
-1.52757e-06
-4.54449e-06
1.20166e-05
-1.52757e-06
3.35907e-06
1.20166e-05
-2.25283e-05
3.35907e-06
-3.89892e-06
-2.25283e-05
2.97937e-05
-3.89892e-06
6.78993e-06
2.97937e-05
-5.42837e-05
6.78993e-06
-7.19647e-06
-5.42837e-05
9.59504e-05
-7.19646e-06
1.73008e-05
9.59504e-05
-0.000146718
1.73008e-05
1.29281e-05
-0.000146719
-4.44658e-05
1.00013e-06
-1.13926e-06
7.46604e-07
-1.06874e-06
-1.13926e-06
-4.54449e-06
-1.06874e-06
-3.73257e-06
-4.54449e-06
1.20166e-05
-3.73257e-06
9.72399e-06
1.20166e-05
-2.25283e-05
9.72399e-06
-2.00952e-05
-2.25283e-05
2.97937e-05
-2.00952e-05
2.26765e-05
2.97937e-05
-5.42837e-05
2.26765e-05
-4.0509e-05
-5.42837e-05
9.59504e-05
-4.0509e-05
5.59015e-05
9.59504e-05
-0.000146719
5.59015e-05
-0.000114957
-0.000146719
-4.44658e-05
-0.000114957
-3.53231e-05
7.46604e-07
-1.06874e-06
-6.67226e-07
3.57199e-07
-1.06874e-06
-3.73257e-06
3.57199e-07
2.50082e-06
-3.73257e-06
9.72399e-06
2.50082e-06
-6.06253e-06
9.72399e-06
-2.00952e-05
-6.06253e-06
1.26004e-05
-2.00952e-05
2.26765e-05
1.26004e-05
-1.44212e-05
2.26765e-05
-4.0509e-05
-1.44212e-05
2.44963e-05
-4.0509e-05
5.59015e-05
2.44963e-05
-5.09012e-05
5.59015e-05
-0.000114957
-5.09012e-05
8.58696e-05
-0.000114957
0.000300525
8.58696e-05
-9.43601e-05
0.000300525
-3.53231e-05
-9.43601e-05
9.33522e-05
-6.67226e-07
3.57199e-07
8.60249e-08
-3.43524e-07
3.57199e-07
2.50082e-06
-3.43524e-07
-7.77101e-07
2.50082e-06
-6.06253e-06
-7.77101e-07
2.11967e-06
-6.06253e-06
1.26004e-05
2.11967e-06
-3.98076e-06
1.26004e-05
-1.44212e-05
-3.98076e-06
4.38841e-06
-1.44212e-05
2.44963e-05
4.38841e-06
-8.31829e-06
2.44963e-05
-5.09012e-05
-8.31829e-06
6.29949e-06
-5.09012e-05
8.58696e-05
6.29949e-06
-2.12474e-06
8.58696e-05
-9.43601e-05
-2.12475e-06
0.000110716
-9.43601e-05
9.33522e-05
0.000110716
7.42944e-06
8.60249e-08
-3.43524e-07
5.53612e-07
8.45385e-07
-3.43524e-07
-7.77101e-07
8.45385e-07
-3.90281e-07
-7.77101e-07
2.11967e-06
-3.90281e-07
2.34684e-07
2.11967e-06
-3.98076e-06
2.34684e-07
6.01951e-07
-3.98076e-06
4.38841e-06
6.01951e-07
2.54711e-06
4.38841e-06
-8.31829e-06
2.54711e-06
-5.38295e-06
-8.31829e-06
6.29949e-06
-5.38295e-06
4.08426e-06
6.29949e-06
-2.12475e-06
4.08426e-06
1.9163e-05
2.34684e-07
6.01951e-07
-2.46899e-06
4.354e-06
6.01951e-07
2.54711e-06
4.354e-06
-1.01338e-05
2.54711e-06
-5.38295e-06
-1.01338e-05
1.72511e-05
-5.38295e-06
4.08427e-06
1.72511e-05
-4.50626e-05
4.08426e-06
1.9163e-05
-4.50626e-05
1.87884e-06
-4.50626e-05
1.87884e-06
-4.4559e-05
-2.41039e-05
-0.000273712
-8.61537e-05
3.07217e-05
0.000450386
-0.000303298
0.00193851
-0.00101066
-0.000875177
0.00193851
-0.00434576
-0.000875177
0.00354058
-0.000875177
0.00354058
0.00553962
-0.00153073
-0.00101066
-0.000875177
-0.000158027
0.00553962
-0.00027592
5.20423e-06
-0.000276506
-0.000262277
5.20421e-06
-0.000303298
-0.000262277
-0.00101066
-0.000262277
-0.00101066
0.000195363
-0.000158026
-0.000276506
-0.000262277
-8.61536e-05
0.000195363
1.9163e-05
2.85787e-05
1.85375e-05
-0.000105778
1.85375e-05
-0.000105778
1.87885e-06
-0.000273712
2.85787e-05
-0.00027592
-0.000105778
-0.000276506
-0.000105778
-0.000276506
-0.000273712
-8.61536e-05
-0.0013899
-0.000304626
0.000930549
0.00592502
0.000930549
0.00592502
-0.00434576
-0.00474174
-0.000107961
0.000587706
-0.000321468
-0.000188929
0.000587706
-0.0013899
-0.000188929
0.000930549
-0.000188929
0.000930549
0.00193851
-0.00434576
-0.000321468
-0.000188929
-0.000303298
0.00193851
7.42946e-06
-0.000246849
-0.000151034
6.32083e-05
-0.000151034
6.32083e-05
-0.00027592
5.20416e-06
-0.000246849
-0.000107961
6.32083e-05
-0.000321468
6.32083e-05
-0.000321468
5.20422e-06
-0.000303298
-2.12475e-06
0.000110716
1.9163e-05
2.85787e-05
0.000110715
7.42946e-06
2.85787e-05
-0.00027592
-0.001521
0.0040175
-0.000231439
0.00259655
-0.000231439
0.00259655
-0.0013899
-0.000304626
-0.00046972
0.000927944
-0.000252692
0.000276478
0.000927944
-0.001521
0.000276478
-0.000231439
0.000276478
-0.000231439
0.000587706
-0.0013899
-0.000252692
0.000276478
-0.000107961
0.000587706
9.33522e-05
0.000358547
9.23874e-05
0.000176599
9.23874e-05
0.000176599
7.42944e-06
-0.000246849
0.000358547
-0.00046972
0.000176599
-0.000252692
0.000176599
-0.000252692
-0.000246849
-0.000107961
0.0131281
0.0734852
-0.00180024
0.0186386
-0.00180024
0.0186386
-0.001521
0.0040175
0.00147403
-0.00291826
-0.000631898
0.00151559
-0.00291826
0.0131281
0.00151559
-0.00180024
0.00151559
-0.00180024
0.000927944
-0.001521
-0.000631899
0.00151559
-0.00046972
0.000927944
-3.53231e-05
-0.000266343
3.23279e-05
-0.000524289
3.23279e-05
-0.000524289
9.33522e-05
0.000358547
-0.000266343
0.00147402
-0.000524289
-0.000631898
-0.000524289
-0.000631898
0.000358547
-0.00046972
0.0152997
0.0820531
0.0180089
0.128977
0.0180089
0.128977
0.0131281
0.0734852
0.00165613
-0.00285068
0.0017869
-0.0029482
-0.00285068
0.0152997
-0.0029482
0.0180089
-0.0029482
0.0180089
-0.00291826
0.0131281
0.0017869
-0.0029482
0.00147403
-0.00291826
-4.44658e-05
-0.000434924
-5.94932e-05
-0.00062008
-5.94932e-05
-0.00062008
-3.53231e-05
-0.000266343
-0.000434923
0.00165613
-0.00062008
0.0017869
-0.00062008
0.0017869
-0.000266343
0.00147402
0.00627844
0.0444592
0.0152997
0.0820531
-0.000332347
0.000796657
0.000352689
-0.000301255
0.000796657
0.000382682
-0.000301255
0.00627844
-0.000301255
0.00627844
-0.00285068
0.0152997
0.000352689
-0.000301255
0.00165613
-0.00285068
1.29281e-05
3.01739e-05
-1.04609e-05
-0.000389435
-1.04609e-05
-0.000389435
-4.44658e-05
-0.000434923
3.01739e-05
-0.000332347
-0.000389435
0.000352689
-0.000389435
0.000352689
-0.000434923
0.00165613
-0.000180922
0.00075412
-6.83725e-05
-0.000133667
-0.000133667
0.000602388
0.000796657
0.000382681
-6.83725e-05
-0.000133667
-0.000332347
0.000796657
2.65006e-06
-7.76493e-05
6.5835e-06
0.000428117
6.5835e-06
0.000428117
1.29281e-05
3.01739e-05
-7.76493e-05
-0.000180922
0.000428117
-6.83725e-05
0.000428117
-6.83725e-05
3.01739e-05
-0.000332347
4.09141e-08
8.42431e-08
3.93903e-08
8.31655e-08
8.42431e-08
3.08664e-09
8.31655e-08
4.46106e-09
3.08664e-09
-9.58877e-08
4.46106e-09
-9.8108e-08
-9.58877e-08
2.14191e-07
-9.8108e-08
2.22847e-07
2.14191e-07
-6.19151e-08
2.22847e-07
-7.37311e-08
-6.19151e-08
6.07072e-08
-7.37311e-08
8.2699e-08
6.07072e-08
-1.02171e-07
8.2699e-08
-1.23297e-07
-1.02171e-07
3.00803e-07
-1.23298e-07
3.81254e-07
3.93903e-08
8.31655e-08
-6.33439e-08
-1.34519e-07
8.31655e-08
4.46107e-09
-1.34519e-07
-7.21182e-09
4.46106e-09
-9.8108e-08
-7.21182e-09
1.59466e-07
-9.8108e-08
2.22847e-07
1.59466e-07
-3.60498e-07
2.22847e-07
-7.37311e-08
-3.60498e-07
1.26973e-07
-7.37312e-08
8.2699e-08
1.26973e-07
-1.46951e-07
8.2699e-08
-1.23297e-07
-1.46951e-07
2.65476e-07
-1.23298e-07
3.81254e-07
2.65476e-07
-6.45626e-07
-6.33439e-08
-1.34519e-07
1.06383e-07
2.28755e-07
-1.34519e-07
-7.21182e-09
2.28755e-07
1.53148e-08
-7.21181e-09
1.59466e-07
1.53148e-08
-2.77632e-07
1.59466e-07
-3.60498e-07
-2.77632e-07
6.27574e-07
-3.60498e-07
1.26973e-07
6.27574e-07
-2.35256e-07
1.26973e-07
-1.46951e-07
-2.35256e-07
2.90962e-07
-1.46951e-07
2.65476e-07
2.90962e-07
-5.46493e-07
2.65476e-07
-6.45626e-07
-5.46493e-07
1.20014e-06
1.06383e-07
2.28755e-07
-1.89525e-07
-4.11845e-07
2.28755e-07
1.53148e-08
-4.11845e-07
-3.27785e-08
1.53148e-08
-2.77632e-07
-3.27785e-08
5.13754e-07
-2.77632e-07
6.27574e-07
5.13754e-07
-1.15248e-06
6.27574e-07
-2.35256e-07
-1.15248e-06
4.62502e-07
-2.35256e-07
2.90962e-07
4.62502e-07
-5.87529e-07
2.90962e-07
-5.46493e-07
-5.87529e-07
1.11894e-06
-5.46493e-07
1.20014e-06
1.11894e-06
-2.42238e-06
-1.89525e-07
-4.11845e-07
5.1779e-07
1.31649e-06
-4.11845e-07
-3.27786e-08
1.31649e-06
3.49326e-07
-3.27786e-08
5.13753e-07
3.49326e-07
-2.22022e-06
5.13754e-07
-1.15248e-06
-2.22022e-06
4.87309e-06
-1.15248e-06
4.62502e-07
4.87309e-06
-2.94182e-06
4.62502e-07
-5.87529e-07
-2.94182e-06
4.43828e-06
-5.87529e-07
1.11894e-06
4.43828e-06
-7.93819e-06
1.11894e-06
-2.42238e-06
-7.93819e-06
1.62761e-05
-2.42238e-06
8.68949e-06
1.62761e-05
-2.58481e-05
5.1779e-07
1.31649e-06
-6.88209e-07
-1.22944e-06
1.31649e-06
3.49326e-07
-1.22944e-06
2.88184e-07
3.49326e-07
-2.22022e-06
2.88184e-07
6.17099e-07
-2.22022e-06
4.87309e-06
6.17099e-07
-1.71517e-06
4.87309e-06
-2.94182e-06
-1.71517e-06
-7.89759e-07
-2.94182e-06
4.43828e-06
-7.89759e-07
2.0328e-06
4.43828e-06
-7.93819e-06
2.0328e-06
-3.32474e-06
-7.93819e-06
1.62761e-05
-3.32474e-06
1.02314e-05
1.62761e-05
-2.58481e-05
1.02314e-05
3.18703e-05
-2.58481e-05
2.08508e-05
3.18703e-05
0.000127941
2.08508e-05
3.16936e-05
0.000127941
7.78913e-05
-6.88209e-07
-1.22944e-06
1.00388e-07
-1.88404e-07
-1.22944e-06
2.88184e-07
-1.88405e-07
-5.86179e-07
2.88184e-07
6.17099e-07
-5.86179e-07
1.54146e-06
6.17099e-07
-1.71517e-06
1.54146e-06
-3.01796e-06
-1.71517e-06
-7.8976e-07
-3.01796e-06
3.3771e-06
-7.89759e-07
2.0328e-06
3.3771e-06
-5.97308e-06
2.0328e-06
-3.32474e-06
-5.97308e-06
9.88736e-06
-3.32474e-06
1.02314e-05
9.88735e-06
-1.44069e-05
1.02314e-05
3.18703e-05
-1.4407e-05
-7.58432e-06
1.00388e-07
-1.88405e-07
-2.62864e-07
7.13562e-07
-1.88405e-07
-5.86179e-07
7.13562e-07
1.85707e-06
-5.86179e-07
1.54146e-06
1.85707e-06
-5.00561e-06
1.54146e-06
-3.01796e-06
-5.00561e-06
9.87214e-06
-3.01796e-06
3.3771e-06
9.87214e-06
-1.11452e-05
3.3771e-06
-5.97308e-06
-1.11452e-05
1.95704e-05
-5.97308e-06
9.88735e-06
1.95704e-05
-3.47873e-05
9.88735e-06
-1.44069e-05
-3.47873e-05
5.12612e-05
-1.4407e-05
-7.58431e-06
5.12612e-05
3.14286e-05
-2.62864e-07
7.13562e-07
-1.68678e-06
1.22771e-07
7.13562e-07
1.85707e-06
1.2277e-07
5.03458e-06
1.85707e-06
-5.00561e-06
5.03458e-06
-1.22524e-05
-5.00561e-06
9.87214e-06
-1.22524e-05
2.4836e-05
9.87213e-06
-1.11452e-05
2.4836e-05
-3.24696e-05
-1.11452e-05
1.95704e-05
-3.24696e-05
5.73156e-05
1.95704e-05
-3.47873e-05
5.73157e-05
-0.000101955
-3.47873e-05
5.12612e-05
-0.000101955
0.000161358
5.12612e-05
3.14286e-05
0.000161358
4.13988e-05
-1.68678e-06
1.2277e-07
3.89931e-06
3.3553e-05
1.22771e-07
5.03458e-06
3.3553e-05
3.62072e-05
5.03458e-06
-1.22524e-05
3.62072e-05
-0.000120302
-1.22524e-05
2.4836e-05
-0.000120302
0.000250108
2.4836e-05
-3.24696e-05
0.000250108
-0.000241038
-3.24696e-05
5.73156e-05
-0.000241038
0.000408942
5.73157e-05
-0.000101955
0.000408942
-0.000723196
-0.000101955
0.000161358
-0.000723196
0.00109512
0.000161358
4.13988e-05
0.00109512
0.000701026
0.000250108
-0.000241037
3.88626e-05
-3.68427e-05
-0.000241037
0.000408942
-3.68427e-05
6.1477e-05
0.000408942
-0.000723196
6.1477e-05
-0.000105836
-0.000723196
0.00109512
-0.000105836
0.000152367
0.00109512
0.000701027
0.000152367
0.000236935
-0.000105836
0.000152367
-6.33672e-06
7.23966e-06
0.000152367
0.000236935
7.23966e-06
2.65007e-06
3.18703e-05
0.000127941
-7.58431e-06
-0.000153058
0.000127941
7.78913e-05
-0.000153058
7.14872e-05
-7.58433e-06
-0.000153058
2.57657e-05
0.000648872
2.57657e-05
0.000648872
3.14287e-05
0.000545427
-0.000153058
7.14872e-05
0.000648872
0.00019975
0.000648872
0.00019975
0.000545427
-0.000224627
7.14872e-05
-0.000254441
0.00019975
-0.00275585
-0.00275585
-0.000515936
-0.000825213
-0.00164476
0.00019975
-0.00275585
-0.000224627
-0.000825213
0.00075412
-0.00118428
-0.000133667
0.000602389
3.14287e-05
0.000545427
-3.51532e-05
-0.000713535
-3.51532e-05
-0.000713535
4.13988e-05
0.00121338
0.000545427
-0.000224627
-0.000713535
-0.000886225
-0.000713535
-0.000886225
0.00121338
-0.000450798
-0.000224627
-0.000825213
-0.000886225
0.00190112
-0.000825213
-0.00164476
0.00190112
-0.00386599
0.00190112
-0.00386599
-0.00012518
0.00577159
-0.000886225
0.00190112
-0.000450798
-0.00012518
-0.00386599
0.024153
0.00577159
0.0701851
0.013939
0.137966
0.00284013
0.0053075
0.137966
0.364148
0.0053075
0.00744528
0.00284013
0.0053075
-0.00118428
0.00189397
-0.000251495
0.0011078
0.000205486
-0.000398065
0.0011078
0.013939
-0.000398065
0.00284013
-0.000398065
0.00284013
0.00075412
-0.00118428
0.000205486
-0.000398065
-0.000180922
0.00075412
0.000236935
0.00171813
5.29734e-05
-0.0001592
5.29734e-05
-0.0001592
2.65008e-06
-7.76493e-05
0.00171813
-0.000251495
-0.0001592
0.000205486
-0.0001592
0.000205486
-7.76493e-05
-0.000180922
4.13988e-05
0.00121338
0.000410897
0.00323128
0.000410897
0.00323128
0.000701026
0.00584158
0.00121338
-0.000450798
0.00323128
-0.00707887
0.00323128
-0.00707887
0.00584158
-0.0102905
-0.000450798
-0.00012518
-0.00707887
0.0167043
-0.00012518
0.00577159
0.0167043
0.0219858
0.0167043
0.0219858
0.023775
0.0665899
-0.00707887
0.0167043
-0.0102905
0.023775
0.00577159
0.0701851
0.0219858
0.379929
0.379929
0.501198
0.591842
0.618951
0.0219858
0.379929
0.0665899
0.591842
0.605346
0.605089
0.364148
0.483703
0.0665899
0.591842
0.0522353
0.457382
0.591842
0.618951
0.457382
0.605346
0.457382
0.605346
0.137966
0.364148
0.0522354
0.457382
0.013939
0.137966
-0.0102905
0.023775
-0.00615278
0.0151849
0.023775
0.0665899
0.0151849
0.0522353
0.0151849
0.0522353
0.0011078
0.013939
-0.00615278
0.0151849
-0.000251495
0.0011078
0.000701026
0.00584158
0.000559564
0.00442949
0.000559564
0.00442949
0.000236935
0.00171813
0.00584158
-0.0102905
0.00442949
-0.00615278
0.00442949
-0.00615278
0.00171813
-0.000251495
3.00803e-07
-1.36703e-06
3.81254e-07
-1.54975e-06
-1.36703e-06
-2.29867e-07
-1.54975e-06
3.44232e-08
-2.29867e-07
4.47955e-06
3.4423e-08
4.30427e-06
4.47955e-06
-2.0056e-05
4.30427e-06
-2.03658e-05
-2.0056e-05
8.2496e-05
-2.03658e-05
7.57368e-05
8.2496e-05
1.11317e-06
7.57368e-05
-4.8144e-07
1.11317e-06
3.46801e-06
-4.81443e-07
1.71837e-06
3.46801e-06
4.91481e-06
1.71838e-06
7.35396e-06
3.81254e-07
-1.54975e-06
-6.45626e-07
2.54857e-06
-1.54975e-06
3.44227e-08
2.54857e-06
-2.60339e-08
3.44234e-08
4.30427e-06