# vtk DataFile Version 2.0
Hex test
ASCII
DATASET UNSTRUCTURED_GRID
POINTS 10204 float
-8 22 0
-8 24 0
-6 22 0
-6 24 0
-8 24 0
-8 26 0
-6 24 0
-6 26 0
-6 20 0
-6 22 0
-4 20 0
-4 22 0
-6 22 0
-6 24 0
-4 22 0
-4 24 0
-6 24 0
-6 26 0
-4 24 0
-4 26 0
-6 26 0
-6 28 0
-4 26 0
-4 28 0
-4 18 0
-4 19 0
-2 18 0
-2 19 0
-4 19 0
-4 20 0
-2 19 0
-2 20 0
-4 20 0
-4 22 0
-2 20 0
-2 22 0
-4 22 0
-4 24 0
-2 22 0
-2 24 0
-4 24 0
-4 26 0
-2 24 0
-2 26 0
-4 26 0
-4 28 0
-2 26 0
-2 28 0
-4 28 0
-4 30 0
-2 28 0
-2 30 0
-2 18 0
-2 19 0
-2.08167e-17 18 0
5.55112e-17 19 0
-2 19 0
-2 20 0
5.55112e-17 19 0
-8.32667e-17 20 0
-2 20 0
-2 22 0
-8.32667e-17 20 0
-6.93889e-17 22 0
-2 22 0
-2 24 0
-4.16334e-17 22 0
-5.55112e-17 24 0
-2 24 0
-2 26 0
-2.77556e-17 24 0
-6.93889e-17 26 0
-2 26 0
-2 28 0
-8.32667e-17 26 0
-5.55112e-17 28 0
-2 28 0
-2 29 0
-6.245e-17 28 0
6.245e-17 29 0
-2 29 0
-2 30 0
6.245e-17 29 0
-5.55112e-17 30 0
-2 30 0
-2 31 0
-2.77556e-17 30 0
8.32667e-17 31 0
-2 31 0
-2 32 0
8.32667e-17 31 0
-5.55112e-17 32 0
0 20 0
-6.93889e-18 21 0
2 20 0
2 21 0
-6.93889e-18 21 0
-2.77556e-17 22 0
2 21 0
2 22 0
-4.16334e-17 22 0
2.94903e-17 23 0
2 22 0
2 23 0
2.94903e-17 23 0
2.77556e-17 24 0
2 23 0
2 24 0
2.77556e-17 24 0
2.94903e-17 25 0
2 24 0
2 25 0
2.94903e-17 25 0
-4.16334e-17 26 0
2 25 0
2 26 0
-2.77556e-17 26 0
-6.93889e-18 27 0
2 26 0
2 27 0
-6.93889e-18 27 0
0 28 0
2 27 0
2 28 0
-6.93889e-18 28 0
3.1225e-17 29 0
2 28 0
2 29 0
3.1225e-17 29 0
2.77556e-17 30 0
2 29 0
2 30 0
2.77556e-17 30 0
8.67362e-17 31 0
2 30 0
2 31 0
8.67362e-17 31 0
2.77556e-17 32 0
2 31 0
2 32 0
2 20 0
2 21 0
4 20 0
4 21 0
2 21 0
2 22 0
4 21 0
4 22 0
2 22 0
2 23 0
4 22 0
4 23 0
2 23 0
2 24 0
4 23 0
4 24 0
2 24 0
2 25 0
4 24 0
4 25 0
2 25 0
2 26 0
4 25 0
4 26 0
2 26 0
2 27 0
4 26 0
4 27 0
2 27 0
2 28 0
4 27 0
4 28 0
12 21 0
12 22 0
14 21 0
14 22 0
3.46945e-17 17 0
2.77556e-17 18 0
2 17 0
2 18 0
3.46945e-17 18 0
1.04083e-17 19 0
2 18 0
2 19 0
-2.08167e-17 19 0
-6.93889e-18 20 0
2 19 0
2 20 0
10 24 0
10 25 0
11 24 0
11 25 0
10 22 0
10 23 0
11 22 0
11 23 0
10 23 0
10 24 0
11 23 0
11 24 0
11 22 0
11 23 0
12 22 0
12 23 0
10 20 0
10 21 0
11 20 0
11 21 0
10 21 0
10 22 0
11 21 0
11 22 0
11 21 0
11 22 0
12 21 0
12 22 0
11 20 0
11 21 0
12 20 0
12 21 0
10 18 0
10 19 0
11 18 0
11 19 0
10 19 0
10 20 0
11 19 0
11 20 0
11 19 0
11 20 0
12 19 0
12 20 0
8 28 0
8 29 0
9 28 0
9 29 0
8 26 0
8 27 0
9 26 0
9 27 0
8 27 0
8 28 0
9 27 0
9 28 0
9 26 0
9 27 0
10 26 0
10 27 0
8 24 0
8 25 0
9 24 0
9 25 0
8 25 0
8 26 0
9 25 0
9 26 0
9 25 0
9 26 0
10 25 0
10 26 0
9 24 0
9 25 0
10 24 0
10 25 0
8 22 0
8 23 0
9 22 0
9 23 0
8 23 0
8 24 0
9 23 0
9 24 0
9 23 0
9 24 0
10 23 0
10 24 0
9 22 0
9 23 0
10 22 0
10 23 0
8 20 0
8 21 0
9 20 0
9 21 0
8 21 0
8 22 0
9 21 0
9 22 0
9 21 0
9 22 0
10 21 0
10 22 0
9 20 0
9 21 0
10 20 0
10 21 0
8 18 0
8 19 0
9 18 0
9 19 0
8 19 0
8 20 0
9 19 0
9 20 0
9 19 0
9 20 0
10 19 0
10 20 0
9 18 0
9 19 0
10 18 0
10 19 0
8 16 0
8 17 0
9 16 0
9 17 0
8 17 0
8 18 0
9 17 0
9 18 0
9 17 0
9 18 0
10 17 0
10 18 0
8 15 0
8 16 0
9 15 0
9 16 0
2 16 0
2 17 0
3 16 0
3 17 0
2 17 0
2 18 0
3 17 0
3 18 0
3 17 0
3 18 0
4 17 0
4 18 0
3 16 0
3 17 0
4 16 0
4 17 0
2 18 0
2 19 0
3 18 0
3 19 0
3 18 0
3 19 0
4 18 0
4 19 0
2 19 0
2 20 0
3 19 0
3 20 0
3 19 0
3 20 0
4 19 0
4 20 0
2 28 0
2 29 0
4 28 0
4 29 0
2 29 0
2 30 0
4 29 0
4 30 0
2 30 0
2 31 0
4 30 0
4 31 0
2 31 0
2 32 0
4 31 0
4 32 0
2 32 0
2 33 0
4 32 0
4 33 0
6 30 0
6 31 0
7 30 0
7 31 0
6 31 0
6 32 0
7 31 0
7 32 0
7 30 0
7 31 0
8 30 0
8 31 0
6 28 0
6 29 0
7 28 0
7 29 0
6 29 0
6 30 0
7 29 0
7 30 0
7 29 0
7 30 0
8 29 0
8 30 0
7 28 0
7 29 0
8 28 0
8 29 0
6 26 0
6 27 0
7 26 0
7 27 0
6 27 0
6 28 0
7 27 0
7 28 0
7 27 0
7 28 0
8 27 0
8 28 0
7 26 0
7 27 0
8 26 0
8 27 0
6 24 0
6 25 0
7 24 0
7 25 0
6 25 0
6 26 0
7 25 0
7 26 0
7 25 0
7 26 0
8 25 0
8 26 0
7 24 0
7 25 0
8 24 0
8 25 0
6 22 0
6 23 0
7 22 0
7 23 0
6 23 0
6 24 0
7 23 0
7 24 0
7 23 0
7 24 0
8 23 0
8 24 0
7 22 0
7 23 0
8 22 0
8 23 0
6 20 0
6 21 0
7 20 0
7 21 0
6 21 0
6 22 0
7 21 0
7 22 0
7 21 0
7 22 0
8 21 0
8 22 0
7 20 0
7 21 0
8 20 0
8 21 0
6 18 0
6 19 0
7 18 0
7 19 0
6 19 0
6 20 0
7 19 0
7 20 0
7 19 0
7 20 0
8 19 0
8 20 0
7 18 0
7 19 0
8 18 0
8 19 0
6 16 0
6 17 0
7 16 0
7 17 0
6 17 0
6 18 0
7 17 0
7 18 0
7 17 0
7 18 0
8 17 0
8 18 0
7 16 0
7 17 0
8 16 0
8 17 0
6 14 0
6 15 0
7 14 0
7 15 0
6 15 0
6 16 0
7 15 0
7 16 0
7 15 0
7 16 0
8 15 0
8 16 0
7 14 0
7 15 0
8 14 0
8 15 0
4 15 0
4 16 0
5 15 0
5 16 0
5 15 0
5 16 0
6 15 0
6 16 0
5 14 0
5 15 0
6 14 0
6 15 0
4 16 0
4 17 0
5 16 0
5 17 0
4 17 0
4 18 0
5 17 0
5 18 0
5 17 0
5 18 0
6 17 0
6 18 0
5 16 0
5 17 0
6 16 0
6 17 0
4 18 0
4 19 0
5 18 0
5 19 0
5 18 0
5 19 0
6 18 0
6 19 0
4 19 0
4 20 0
5 19 0
5 20 0
5 19 0
5 20 0
6 19 0
6 20 0
4 20 0
4 21 0
6 20 0
6 21 0
4 21 0
4 22 0
6 21 0
6 22 0
4 22 0
4 23 0
6 22 0
6 23 0
4 23 0
4 24 0
6 23 0
6 24 0
4 24 0
4 25 0
6 24 0
6 25 0
4 25 0
4 26 0
6 25 0
6 26 0
4 26 0
4 27 0
6 26 0
6 27 0
4 27 0
4 28 0
6 27 0
6 28 0
4 28 0
4 29 0
5 28 0
5 29 0
5 28 0
5 29 0
6 28 0
6 29 0
4 29 0
4 30 0
5 29 0
5 30 0
5 29 0
5 30 0
6 29 0
6 30 0
4 30 0
4 31 0
5 30 0
5 31 0
4 31 0
4 32 0
5 31 0
5 32 0
5 31 0
5 32 0
6 31 0
6 32 0
5 30 0
5 31 0
6 30 0
6 31 0
4 32 0
4 33 0
5 32 0
5 33 0
5 33 0
5 34 0
6 33 0
6 34 0
5 32 0
5 33 0
6 32 0
6 33 0
7 13 0
7 14 0
8 13 0
8 14 0
14 20 0
14 21 0
16 20 0
16 21 0
14 21 0
14 22 0
16 21 0
16 22 0
14 22 0
14 23 0
16 22 0
16 23 0
14 23 0
14 24 0
16 23 0
16 24 0
14 24 0
14 25 0
16 24 0
16 25 0
14 25 0
14 26 0
16 25 0
16 26 0
14 26 0
14 27 0
16 26 0
16 27 0
14 27 0
14 28 0
16 27 0
16 28 0
14 28 0
14 29 0
16 28 0
16 29 0
14 29 0
14 30 0
16 29 0
16 30 0
14 30 0
14 31 0
16 30 0
16 31 0
14 31 0
14 32 0
16 31 0
16 32 0
14 32 0
14 33 0
16 32 0
16 33 0
14 33 0
14 34 0
16 33 0
16 34 0
16 20 0
16 21 0
18 20 0
18 21 0
16 21 0
16 22 0
18 21 0
18 22 0
16 22 0
16 23 0
18 22 0
18 23 0
16 23 0
16 24 0
18 23 0
18 24 0
16 24 0
16 25 0
18 24 0
18 25 0
16 25 0
16 26 0
18 25 0
18 26 0
16 26 0
16 27 0
18 26 0
18 27 0
16 27 0
16 28 0
18 27 0
18 28 0
16 28 0
16 29 0
18 28 0
18 29 0
16 29 0
16 30 0
18 29 0
18 30 0
16 30 0
16 31 0
18 30 0
18 31 0
16 31 0
16 32 0
18 31 0
18 32 0
16 32 0
16 33 0
18 32 0
18 33 0
16 33 0
16 34 0
18 33 0
18 34 0
16 34 0
16 35 0
18 34 0
18 35 0
16 35 0
16 36 0
18 35 0
18 36 0
18 20 0
18 22 0
20 20 0
20 22 0
18 22 0
18 24 0
20 22 0
20 24 0
18 24 0
18 26 0
20 24 0
20 26 0
18 26 0
18 28 0
20 26 0
20 28 0
18 28 0
18 30 0
20 28 0
20 30 0
18 30 0
18 32 0
20 30 0
20 32 0
18 32 0
18 34 0
20 32 0
20 34 0
18 34 0
18 35 0
20 34 0
20 35 0
18 35 0
18 36 0
20 35 0
20 36 0
20 20 0
20 22 0
22 20 0
22 22 0
20 22 0
20 24 0
22 22 0
22 24 0
20 24 0
20 26 0
22 24 0
22 26 0
20 26 0
20 28 0
22 26 0
22 28 0
20 28 0
20 30 0
22 28 0
22 30 0
20 30 0
20 32 0
22 30 0
22 32 0
20 32 0
20 34 0
22 32 0
22 34 0
20 34 0
20 36 0
22 34 0
22 36 0
22 22 0
22 24 0
24 22 0
24 24 0
22 24 0
22 26 0
24 24 0
24 26 0
22 26 0
22 28 0
24 26 0
24 28 0
22 28 0
22 30 0
24 28 0
24 30 0
22 30 0
22 32 0
24 30 0
24 32 0
22 32 0
22 34 0
24 32 0
24 34 0
22 34 0
22 36 0
24 34 0
24 36 0
22 36 0
22 37 0
23 36 0
23 37 0
23 36 0
23 37 0
24 36 0
24 37 0
22 37 0
22 38 0
23 37 0
23 38 0
23 37 0
23 38 0
24 37 0
24 38 0
20 38 0
20 39 0
21 38 0
21 39 0
21 38 0
21 39 0
22 38 0
22 39 0
20 36 0
20 37 0
21 36 0
21 37 0
21 36 0
21 37 0
22 36 0
22 37 0
20 37 0
20 38 0
21 37 0
21 38 0
21 37 0
21 38 0
22 37 0
22 38 0
18 38 0
18 39 0
19 38 0
19 39 0
18 39 0
18 40 0
19 39 0
19 40 0
19 38 0
19 39 0
20 38 0
20 39 0
18 36 0
18 37 0
19 36 0
19 37 0
19 36 0
19 37 0
20 36 0
20 37 0
18 37 0
18 38 0
19 37 0
19 38 0
19 37 0
19 38 0
20 37 0
20 38 0
16 38 0
16 39 0
17 38 0
17 39 0
16 39 0
16 40 0
17 39 0
17 40 0
17 38 0
17 39 0
18 38 0
18 39 0
16 36 0
16 37 0
17 36 0
17 37 0
17 36 0
17 37 0
18 36 0
18 37 0
16 37 0
16 38 0
17 37 0
17 38 0
17 37 0
17 38 0
18 37 0
18 38 0
14 38 0
14 39 0
15 38 0
15 39 0
14 39 0
14 40 0
15 39 0
15 40 0
15 39 0
15 40 0
16 39 0
16 40 0
15 38 0
15 39 0
16 38 0
16 39 0
14 36 0
14 37 0
15 36 0
15 37 0
15 36 0
15 37 0
16 36 0
16 37 0
14 37 0
14 38 0
15 37 0
15 38 0
15 37 0
15 38 0
16 37 0
16 38 0
14 34 0
14 35 0
16 34 0
16 35 0
14 35 0
14 36 0
16 35 0
16 36 0
12 38 0
12 39 0
13 38 0
13 39 0
13 39 0
13 40 0
14 39 0
14 40 0
13 38 0
13 39 0
14 38 0
14 39 0
12 36 0
12 37 0
13 36 0
13 37 0
12 37 0
12 38 0
13 37 0
13 38 0
13 37 0
13 38 0
14 37 0
14 38 0
13 36 0
13 37 0
14 36 0
14 37 0
12 34 0
12 35 0
13 34 0
13 35 0
13 34 0
13 35 0
14 34 0
14 35 0
12 35 0
12 36 0
13 35 0
13 36 0
13 35 0
13 36 0
14 35 0
14 36 0
12 32 0
12 33 0
14 32 0
14 33 0
12 33 0
12 34 0
14 33 0
14 34 0
12 30 0
12 31 0
14 30 0
14 31 0
12 31 0
12 32 0
14 31 0
14 32 0
12 28 0
12 29 0
14 28 0
14 29 0
12 29 0
12 30 0
14 29 0
14 30 0
12 26 0
12 27 0
14 26 0
14 27 0
12 27 0
12 28 0
14 27 0
14 28 0
12 24 0
12 25 0
14 24 0
14 25 0
12 25 0
12 26 0
14 25 0
14 26 0
12 22 0
12 23 0
14 22 0
14 23 0
12 23 0
12 24 0
14 23 0
14 24 0
12 20 0
12 21 0
14 20 0
14 21 0
10 36 0
10 37 0
11 36 0
11 37 0
10 37 0
10 38 0
11 37 0
11 38 0
11 37 0
11 38 0
12 37 0
12 38 0
11 36 0
11 37 0
12 36 0
12 37 0
10 34 0
10 35 0
11 34 0
11 35 0
10 35 0
10 36 0
11 35 0
11 36 0
11 35 0
11 36 0
12 35 0
12 36 0
11 34 0
11 35 0
12 34 0
12 35 0
10 32 0
10 33 0
11 32 0
11 33 0
10 33 0
10 34 0
11 33 0
11 34 0
11 33 0
11 34 0
12 33 0
12 34 0
11 32 0
11 33 0
12 32 0
12 33 0
10 30 0
10 31 0
11 30 0
11 31 0
10 31 0
10 32 0
11 31 0
11 32 0
11 31 0
11 32 0
12 31 0
12 32 0
11 30 0
11 31 0
12 30 0
12 31 0
10 28 0
10 29 0
11 28 0
11 29 0
10 29 0
10 30 0
11 29 0
11 30 0
11 29 0
11 30 0
12 29 0
12 30 0
11 28 0
11 29 0
12 28 0
12 29 0
10 26 0
10 27 0
11 26 0
11 27 0
10 27 0
10 28 0
11 27 0
11 28 0
11 27 0
11 28 0
12 27 0
12 28 0
11 26 0
11 27 0
12 26 0
12 27 0
10 25 0
10 26 0
11 25 0
11 26 0
11 25 0
11 26 0
12 25 0
12 26 0
11 24 0
11 25 0
12 24 0
12 25 0
11 23 0
11 24 0
12 23 0
12 24 0
9 36 0
9 37 0
10 36 0
10 37 0
8 34 0
8 35 0
9 34 0
9 35 0
8 35 0
8 36 0
9 35 0
9 36 0
9 35 0
9 36 0
10 35 0
10 36 0
9 34 0
9 35 0
10 34 0
10 35 0
8 32 0
8 33 0
9 32 0
9 33 0
8 33 0
8 34 0
9 33 0
9 34 0
9 33 0
9 34 0
10 33 0
10 34 0
9 32 0
9 33 0
10 32 0
10 33 0
8 30 0
8 31 0
9 30 0
[...]
POINT_DATA 10204
SCALARS phi float 1
LOOKUP_TABLE default
7.17954e-05
4.87792e-05
-8.80433e-05
-6.05447e-05
4.87792e-05
6.1791e-05
-6.05447e-05
-7.66193e-05
-6.25666e-05
-8.80433e-05
0.000118894
0.000161959
-8.80433e-05
-6.05447e-05
0.000161959
0.000110766
-6.05447e-05
-7.66193e-05
0.000110766
0.000139479
-7.66193e-05
-7.36613e-05
0.000139479
0.000139623
6.60726e-05
9.12954e-05
-4.07815e-05
-0.000125596
9.12954e-05
0.000118894
-0.000125596
-0.000220712
0.000118894
0.000161959
-0.000220712
-0.000310236
0.000161959
0.000110766
-0.000310236
-0.000204471
0.000110766
0.000139479
-0.000204471
-0.000262441
0.000139479
0.000139623
-0.000262441
-0.000265902
0.000139623
2.53693e-05
-0.000265902
-5.51279e-05
-4.07815e-05
-0.000125596
0.000500187
0.000497713
-0.000125596
-0.000220712
0.000497713
0.000419943
-0.000220712
-0.000310236
0.000419943
0.000570805
-0.000310236
-0.000204471
0.000570805
0.000386427
-0.000204471
-0.000262441
0.000386427
0.000516784
-0.000262441
-0.000265902
0.000516784
0.00046581
-0.000265902
-0.000184671
0.00046581
0.000410159
-0.000184671
-5.51279e-05
0.000410159
0.000278377
-5.51279e-05
7.73594e-05
0.000278377
-0.000361796
7.73594e-05
5.70227e-05
-0.000361796
-0.000211317
0.000419943
0.000488776
-0.000776035
-0.00077792
0.000488776
0.000570805
-0.00077792
-0.00107142
0.000570805
0.000487979
-0.00107142
-0.000953828
0.000487979
0.000386427
-0.000953828
-0.000721734
0.000386427
0.000428451
-0.000721734
-0.000747925
0.000428451
0.000516784
-0.000747925
-0.000975001
0.000516784
0.000524529
-0.000975002
-0.000946591
0.000524529
0.00046581
-0.000946591
-0.000932076
0.00046581
0.000410159
-0.000932076
-0.000434706
0.000410159
0.000278377
-0.000434706
0.000221001
0.000278377
-0.000361796
0.000221001
-0.000130907
-0.000361796
-0.000211317
-0.000130907
7.13136e-05
-0.000776035
-0.00077792
0.00121755
0.00171578
-0.00077792
-0.00107142
0.00171578
0.00163035
-0.00107142
-0.000953828
0.00163035
0.00140362
-0.000953828
-0.000721734
0.00140362
0.00125662
-0.000721734
-0.000747925
0.00125662
0.0012542
-0.000747925
-0.000975001
0.0012542
0.00137312
-0.000975002
-0.000946591
0.00137312
0.0016855
-0.000946591
-0.000932076
0.0016855
0.00155865
0.999103
0.998511
0.999165
0.998753
0.000456696
0.000500187
0.000463798
0.000419989
0.000500187
0.000497713
0.000419989
-0.000436839
0.000497713
0.000419943
-0.000436839
-0.000776035
0.932069
0.928024
0.990698
0.990669
0.949482
0.934066
0.991482
0.990865
0.934066
0.932069
0.990865
0.990698
0.991482
0.990865
0.998511
0.99836
0.987159
0.976618
0.998611
0.994539
0.976618
0.949482
0.994539
0.991482
0.994539
0.991482
0.999103
0.998511
0.998611
0.994539
0.999779
0.999103
0.980983
0.988652
0.996474
0.999491
0.988652
0.987159
0.999491
0.998611
0.999491
0.998611
1.0002
0.999779
0.109452
0.128565
0.714566
0.752125
0.024814
0.0502042
0.389854
0.526454
0.0502041
0.109452
0.526454
0.714566
0.389854
0.526454
0.931006
0.960101
0.0244261
0.0223087
0.387775
0.379492
0.0223087
0.024814
0.379492
0.389854
0.379492
0.389854
0.928024
0.931006
0.387775
0.379492
0.932069
0.928024
0.0380215
0.0256475
0.465127
0.400481
0.0256475
0.0244261
0.400481
0.387775
0.40048
0.387775
0.934066
0.932069
0.465127
0.40048
0.949482
0.934066
0.136416
0.0779111
0.761519
0.631987
0.0779111
0.0380216
0.631987
0.465127
0.631987
0.465127
0.976618
0.949482
0.761519
0.631987
0.987159
0.976618
0.104575
0.158988
0.693043
0.79681
0.158988
0.136416
0.79681
0.761519
0.79681
0.761519
0.988652
0.987159
0.693043
0.79681
0.980983
0.988652
0.018515
0.0362482
0.172821
0.432598
0.0362482
0.104575
0.432598
0.693043
0.432598
0.693043
0.926742
0.980983
0.00816574
0.018515
0.0526216
0.172821
8.4631e-05
0.000463798
6.60412e-05
0.00218565
0.000463798
0.000419989
0.00218565
0.00254283
0.00218565
0.00254283
0.000438716
0.000460541
6.60412e-05
0.00218565
-4.50667e-05
0.000438716
0.000419989
-0.000436839
0.00254283
0.00111006
0.00254283
0.00111006
0.000460541
0.000710987
-0.000436839
-0.000776035
0.00111006
0.00120639
0.00111006
0.00120639
0.000710986
0.00121755
-0.000932076
-0.000434706
0.00155865
0.0008064
-0.000434706
0.000221001
0.0008064
-0.000252614
0.000221001
-0.000130907
-0.000252614
-0.000162176
-0.000130907
7.13136e-05
-0.000162176
-0.000241699
7.13136e-05
0.000609977
-0.000241699
0.000126305
-0.00658542
-0.00387891
0.00970579
0.00607041
-0.00387891
-0.00256097
0.00607041
0.00196587
0.00970579
0.00607041
0.0602165
0.0284292
0.00108183
-0.00116421
0.00941764
0.00984987
-0.00116421
-0.00658542
0.00984987
0.00970579
0.00984987
0.00970579
0.128565
0.0602165
0.00941764
0.00984987
0.109452
0.128565
0.000744424
0.00117339
0.00593471
0.00843679
0.00117339
0.00108183
0.0084368
0.00941764
0.00843679
0.00941764
0.0502042
0.109452
0.00593472
0.00843679
0.024814
0.0502041
0.000813808
0.000772562
0.00588697
0.00574513
0.000772562
0.000744424
0.00574513
0.00593472
0.00574513
0.00593472
0.0223087
0.024814
0.00588697
0.00574513
0.0244261
0.0223087
0.000983108
0.000749434
0.00739618
0.00613282
0.000749434
0.000813808
0.00613282
0.00588697
0.00613282
0.00588697
0.0256475
0.0244261
0.00739618
0.00613282
0.0380216
0.0256475
0.00112909
0.00120933
0.00989965
0.00933243
0.00120933
0.000983108
0.00933243
0.00739618
0.00933243
0.00739618
0.0779111
0.0380216
0.00989965
0.00933243
0.136416
0.0779111
-0.00541133
-0.00124766
0.0113764
0.00973037
-0.00124766
0.00112909
0.00973037
0.00989965
0.00973037
0.00989965
0.158988
0.136416
0.0113764
0.00973037
0.104575
0.158988
0.00280596
-0.00733513
0.00182489
0.00584635
-0.00733513
-0.00541133
0.00584635
0.0113764
0.00584635
0.0113764
0.0362483
0.104575
0.00182489
0.00584635
0.018515
0.0362483
0.00878329
-0.00433893
0.00686807
-0.00666399
-0.00433893
0.00280596
-0.00666399
0.00182489
-0.00666399
0.00182489
0.00816574
0.018515
0.00686807
-0.00666399
0.0152101
0.00816574
0.00049875
-4.50667e-05
-0.000600384
-0.00105423
-0.000600384
-0.00105423
-0.00433893
0.00280596
-0.00143604
-0.000600384
0.00878329
-0.00433893
-4.50667e-05
0.000438716
-0.00105423
-0.00403587
0.000438716
0.000460541
-0.00403587
-0.00379066
-0.00403587
-0.00379066
-0.00733513
-0.00541133
-0.00105423
-0.00403587
0.00280596
-0.00733513
0.000460541
0.000710986
-0.00379066
-0.00250156
-0.00379066
-0.00250156
-0.00541133
-0.00124766
0.000710986
0.00121755
-0.00250156
-0.00275764
-0.00250156
-0.00275764
-0.00124766
0.00112909
0.00121755
0.00171578
0.00112909
0.00120933
0.00171578
0.00163035
0.00120933
0.000983108
0.00163035
0.00140362
0.000983108
0.000749435
0.00140362
0.00125662
0.000749434
0.000813809
0.00125662
0.0012542
0.000813809
0.000772563
0.0012542
0.00137312
0.000772562
0.000744424
0.00137312
0.0016855
0.000744424
0.00117339
0.0016855
0.00155865
0.00117339
0.00108183
0.00155865
0.0008064
-0.00374478
-0.00332527
-0.00374478
-0.00332527
0.00108183
-0.00116421
0.0008064
-0.000252614
-0.00332527
-0.00375101
-0.00332527
-0.00375101
-0.00116421
-0.00658542
-0.000252614
-0.000162176
-0.00375101
-0.0029769
-0.000162176
-0.000241699
-0.0029769
-0.00231561
-0.0029769
-0.00231561
-0.00387891
-0.00256097
-0.00375101
-0.0029769
-0.00658542
-0.00387891
-0.000241699
0.000126305
-0.00231561
-0.000794791
-0.000794791
-0.00355294
0.00106342
0.0231838
-0.00231561
-0.000794791
-0.00256097
0.00106342
0.0330983
0.00686807
0.0527477
0.0152101
0.999893
0.999165
0.999918
1.00023
0.999165
0.998753
1.00023
1.00085
0.998753
0.998746
1.00085
1.00089
0.998746
0.998894
1.00089
1.00069
0.998894
0.99876
1.00069
1.00087
0.99876
0.998684
1.00087
1.00089
0.998684
0.998823
1.00089
1.00035
0.998823
0.999514
1.00035
1.0002
0.999514
0.999647
1.0002
1.00035
0.999647
0.998983
1.00035
1.00035
0.998983
0.998274
1.00035
1.00087
0.998274
0.99819
1.00087
1.00025
0.99819
1.00021
1.00025
0.998764
1.00021
1.00172
0.998764
0.99923
0.999918
1.00023
1.00008
0.999864
1.00023
1.00085
0.999864
0.99952
1.00085
1.00089
0.99952
0.999466
1.00089
1.00069
0.999466
0.999563
1.00069
1.00087
0.999563
0.999591
1.00087
1.00089
0.999591
0.999573
1.00089
1.00035
0.999573
0.999596
1.00035
1.0002
0.999596
0.999774
1.0002
1.00035
0.999774
1.00009
1.00035
1.00035
1.00009
0.999989
1.00035
1.00087
0.999989
0.999196
1.00087
1.00025
0.999196
0.999071
1.00025
0.998764
0.999071
1.00042
0.998764
0.99923
1.00042
1.00022
0.99923
1.00209
1.00022
0.996958
1.00209
0.994634
0.996958
0.999678
1.00008
0.99952
0.999975
1.00018
0.99952
0.999563
1.00018
1.00021
0.999563
0.999573
1.00021
1.00017
0.999573
0.999774
1.00017
1.0001
0.999774
0.999989
1.0001
0.999936
0.999989
0.99907
0.999936
1.00038
0.99907
1.00022
1.00038
0.999593
1.00022
0.996958
0.999593
1.00202
0.996958
0.999678
1.00202
0.99962
0.999975
1.00018
1
0.999997
1.00018
1.00021
0.999997
1.00005
1.00021
1.00017
1.00005
0.999811
1.00017
1.0001
0.999811
1.0004
1.0001
0.999936
1.0004
0.999422
0.999936
1.00038
0.999422
1.00094
1.00038
0.999593
1.00094
0.997922
0.999593
0.99962
0.997922
0.99847
0.999997
1.00005
0.99983
0.999893
1.00005
0.999811
0.999893
0.999716
0.999811
1.0004
0.999716
1.00006
1.0004
0.999422
1.00006
0.999314
0.999422
1.00094
0.999314
1.00086
1.00094
0.997922
1.00086
0.999062
0.997922
0.99847
0.999062
0.999034
0.99847
0.989159
0.998641
0.989852
0.998641
0.989852
0.999034
0.992351
0.989159
0.927484
0.989852
0.933937
0.989852
0.933937
0.992351
0.959608
0.980548
0.696952
0.952142
0.484869
0.952142
0.484869
0.927484
0.370752
0.99962
0.995728
0.998934
0.99222
0.998934
0.99222
0.99847
0.989158
0.995728
0.980548
0.99222
0.952142
0.99222
0.952142
0.989158
0.927484
0.982615
0.894773
0.985441
0.864431
0.894773
0.334798
0.864431
0.253665
0.985441
0.864431
0.980548
0.696952
0.999678
1.00386
0.999967
1.00102
0.999967
1.00102
0.99962
0.995728
1.00386
0.982615
1.00102
0.985441
1.00102
0.985441
0.995728
0.980548
0.849721
0.469086
0.965905
0.795464
0.469086
0.0944128
0.795464
0.238149
0.965905
0.795464
0.982615
0.894773
0.994634
0.971701
0.998317
0.99195
0.998317
0.99195
0.999678
1.00386
0.971701
0.849721
0.99195
0.965905
0.99195
0.965905
1.00386
0.982615
0.216252
0.040943
0.524645
0.136182
0.040943
0.00538014
0.136182
0.0307231
0.136182
0.0307231
0.469086
0.0944127
0.524645
0.136182
0.849721
0.469086
0.956533
0.723585
0.984934
0.901737
0.984934
0.901737
0.994634
0.971701
0.723585
0.216252
0.901737
0.524645
0.901737
0.524645
0.971701
0.849721
1.00172
0.99163
0.99923
1.00209
0.99163
0.956533
1.00209
0.994634
0.0193979
0.000329363
0.0740746
0.0134985
0.0134985
-0.000262287
0.040943
0.00538014
0.0740746
0.0134985
0.216252
0.040943
0.656084
0.160159
0.858338
0.404897
0.160159
0.0193979
0.404896
0.0740746
0.404897
0.0740746
0.723585
0.216252
0.858338
0.404897
0.956533
0.723585
0.946907
0.881054
1.00018
0.979233
1.00018
0.979233
1.00172
0.99163
0.881054
0.656084
0.979233
0.858338
0.979233
0.858338
0.99163
0.956533
0.995795
0.982475
0.99819
1.00021
0.982475
0.946907
1.00021
1.00172
0.999015
0.998341
0.998983
0.998274
0.998341
0.995795
0.998274
0.99819
0.999611
0.999874
0.999514
0.999647
0.999874
0.999015
0.999647
0.998983
0.998348
0.998694
0.998684
0.998822
0.998694
0.999611
0.998822
0.999514
0.998201
0.998321
0.998894
0.99876
0.998321
0.998348
0.99876
0.998684
0.998511
0.99836
0.998753
0.998746
0.998361
0.998201
0.998746
0.998894
0.999779
0.999103
0.999893
0.999165
0.621785
0.556713
0.678188
0.466234
0.556713
0.243552
0.466234
0.135847
0.466234
0.135847
0.160159
0.0193979
0.678188
0.466234
0.656084
0.160159
0.583224
0.580037
0.783899
0.718741
0.580037
0.621785
0.718741
0.678188
0.718741
0.678188
0.881054
0.656084
0.783899
0.718741
0.946907
0.881054
0.871035
0.808208
0.978296
0.924177
0.808208
0.583224
0.924177
0.783899
0.924177
0.783899
0.982475
0.946907
0.978296
0.924177
0.995795
0.982475
0.966502
0.914302
0.993055
0.990082
0.914302
0.871035
0.990083
0.978296
0.990082
0.978296
0.998341
0.995795
0.993054
0.990082
0.999015
0.998341
0.984608
0.987262
0.996953
0.998371
0.987262
0.966502
0.998371
0.993055
0.998371
0.993054
0.999874
0.999015
0.996953
0.998371
0.999611
0.999874
0.931006
0.960101
0.990696
0.992553
0.960101
0.984608
0.992553
0.996953
0.992553
0.996953
0.998694
0.999611
0.990696
0.992553
0.998348
0.998694
0.928024
0.931006
0.990669
0.990696
0.990669
0.990696
0.998321
0.998348
0.990698
0.990669
0.998201
0.998321
0.990865
0.990698
0.99836
0.998201
0.572003
0.464761
0.621786
0.556713
0.43934
0.412597
0.651493
0.608297
0.412597
0.330947
0.608297
0.572003
0.608297
0.572003
0.580038
0.621786
0.651493
0.608297
0.583224
0.580038
0.0150237
0.206584
0.293593
0.624449
0.206584
0.43934
0.624449
0.651493
0.624449
0.651493
0.808208
0.583224
0.293593
0.624449
0.871035
0.808208
0.0602165
0.0284292
0.57187
0.360369
0.0284292
0.0150237
0.360369
0.293593
0.360369
0.293593
0.914302
0.871035
0.571871
0.360369
0.966502
0.914302
0.128565
0.0602165
0.752125
0.57187
0.752125
0.571871
0.987262
0.966502
0.714566
0.752125
0.984608
0.987262
0.526454
0.714566
0.960101
0.984608
0.013924
0.0434025
0.412597
0.330947
0.0205644
0.013924
0.43934
0.412597
-0.00256097
0.00106342
0.00196587
0.0218452
0.00106342
0.0231838
0.0218452
0.0205644
0.0218452
0.0205644
0.206584
0.43934
0.00196587
0.0218452
0.0150237
0.206584
0.00607041
0.00196587
0.0284292
0.0150237
-2.74925e-06
-1.9514e-06
3.45902e-06
2.21052e-06
-1.9514e-06
-2.47314e-06
2.21052e-06
2.80641e-06
-2.47314e-06
-2.33566e-06
2.80641e-06
2.62638e-06
-2.33566e-06
1.61734e-06
2.62638e-06
3.96958e-06
1.61734e-06
2.61716e-06
3.96958e-06
3.01646e-06
2.61716e-06
-1.12544e-05
3.01646e-06
-6.62161e-06
-1.12544e-05
-6.94578e-06
-6.62161e-06
-3.01862e-06
-6.94578e-06
1.2549e-06
-3.01862e-06
-2.53563e-07
1.2549e-06
-4.81772e-07
-2.53564e-07
1.88284e-07
-4.81772e-07
2.98536e-07
1.88285e-07
5.74592e-08
2.98536e-07
-1.70647e-07
5.74592e-08
-8.49471e-08
-1.70647e-07
7.93448e-08
-8.49472e-08
2.15156e-08
7.93448e-08
-4.47738e-08
2.15155e-08
-1.13623e-08
-4.47738e-08
2.38045e-08
-1.13623e-08
6.68052e-09
2.38045e-08
-1.29755e-08
6.68052e-09
-3.77304e-09
-1.29755e-08
7.4819e-09
-3.77304e-09
2.25e-09
7.4819e-09
-4.42698e-09
2.25e-09
-1.31596e-09
-4.42698e-09
-4.27712e-09
-1.31596e-09
-1.9633e-09
3.45902e-06
2.21052e-06
1.21895e-05
8.33998e-06
2.21052e-06
2.80641e-06
8.33998e-06
1.05808e-05
2.80641e-06
2.62638e-06
1.05808e-05
9.99212e-06
2.62638e-06
3.96958e-06
9.99212e-06
1.34227e-07
3.96958e-06
3.01646e-06
1.34227e-07
-3.92113e-06
3.01646e-06
-6.6216e-06
-3.92113e-06
2.42856e-05
-6.62161e-06
-3.01862e-06
2.42856e-05
1.62895e-05
-3.01862e-06
-2.53564e-07
1.62895e-05
-3.99705e-06
-2.53564e-07
1.88285e-07
-3.99705e-06
1.64985e-06
1.88284e-07
5.74593e-08
1.64985e-06
-7.85638e-07
5.74592e-08
-8.49471e-08
-7.85638e-07
3.80425e-07
-8.49471e-08
2.15156e-08
3.80425e-07
-2.00591e-07
2.15156e-08
-1.13623e-08
-2.00591e-07
1.1387e-07
-1.13623e-08
6.68052e-09
1.1387e-07
-5.97115e-08
6.68052e-09
-3.77304e-09
-5.97115e-08
3.22889e-08
-3.77304e-09
2.25e-09
3.22889e-08
-1.84277e-08
2.24999e-09
-1.31596e-09
-1.84277e-08
1.08545e-08
-1.31596e-09
-1.9633e-09
1.08545e-08
9.6199e-09
8.33998e-06
1.05808e-05
-2.33213e-05
-2.96359e-05
1.05808e-05
9.99212e-06
-2.96359e-05
-2.82811e-05
9.99212e-06
1.34227e-07
-2.82811e-05
-6.21746e-06
1.34227e-07
-3.92113e-06
-6.21746e-06
5.21543e-06
-3.92113e-06
2.42855e-05
5.21542e-06
-5.04857e-05
2.42855e-05
1.62895e-05
-5.04857e-05
-3.56273e-05
1.62895e-05
-3.99705e-06
-3.56273e-05
9.76855e-06
-3.99705e-06
1.64985e-06
9.76855e-06
-4.14844e-06
1.64985e-06
-7.85638e-07
-4.14844e-06
1.82151e-06
-7.85638e-07
3.80425e-07
1.82151e-06
-8.19768e-07
3.80425e-07
-2.00591e-07
-8.19768e-07
4.58281e-07
-2.00591e-07
1.1387e-07
4.58281e-07
-2.61671e-07
1.1387e-07
-5.97114e-08
-2.6167e-07
1.36506e-07
-5.97115e-08
3.22889e-08
1.36506e-07
-7.37243e-08
3.2289e-08
-1.84277e-08
-7.37244e-08
4.22711e-08
-1.84277e-08
1.08545e-08
4.22712e-08
-2.5171e-08
1.08545e-08
9.6199e-09
-2.5171e-08
-2.11413e-08
-2.33213e-05
-2.96359e-05
4.87792e-05
6.1791e-05
-2.96359e-05
-2.82811e-05
6.1791e-05
5.39776e-05
-2.82811e-05
-6.21746e-06
5.39776e-05
1.49674e-05
-6.21746e-06
5.21542e-06
1.49674e-05
-5.99527e-06
5.21542e-06
-5.04857e-05
-5.99528e-06
9.6102e-05
-5.04857e-05
-3.56273e-05
9.6102e-05
6.96415e-05
-3.56274e-05
9.76854e-06
6.96415e-05
-1.95792e-05
9.76855e-06
-4.14844e-06
-1.95792e-05
8.37864e-06
-4.14844e-06
1.82151e-06
8.37864e-06
-3.63545e-06
1.82151e-06
-8.19768e-07
-3.63545e-06
1.61911e-06
-8.19768e-07
4.58281e-07
1.61911e-06
-9.06183e-07
4.58281e-07
-2.61671e-07
-9.06183e-07
5.225e-07
-2.61671e-07
1.36506e-07
5.225e-07
-2.70599e-07
1.36506e-07
-7.37243e-08
-2.70599e-07
1.47237e-07
-7.37243e-08
4.22712e-08
1.47237e-07
-8.42028e-08
4.22712e-08
-2.5171e-08
-8.42028e-08
5.03176e-08
-2.5171e-08
-2.11413e-08
5.03176e-08
4.18154e-08
6.1791e-05
5.39776e-05
-7.66193e-05
-7.36613e-05
5.39776e-05
1.49674e-05
-7.36613e-05
-1.28046e-05
1.49674e-05
-5.99528e-06
-1.28046e-05
1.71158e-05
-5.99528e-06
9.6102e-05
1.71158e-05
-0.000145662
9.6102e-05
6.96415e-05
-0.000145662
-0.000100112
6.96415e-05
-1.95792e-05
-0.000100112
2.49813e-05
-1.95792e-05
8.37864e-06
2.49813e-05
-1.05251e-05
8.37863e-06
-3.63545e-06
-1.05251e-05
4.92805e-06
-3.63545e-06
1.61911e-06
4.92805e-06
-2.34993e-06
1.61911e-06
-9.06183e-07
-2.34993e-06
1.26731e-06
-9.06183e-07
5.225e-07
1.26731e-06
-7.2406e-07
5.225e-07
-2.70599e-07
-7.2406e-07
3.7851e-07
-2.70599e-07
1.47237e-07
3.7851e-07
-2.05432e-07
1.47237e-07
-8.42028e-08
-2.05432e-07
1.18798e-07
-8.42028e-08
5.03176e-08
1.18798e-07
-7.16039e-08
5.03176e-08
4.18154e-08
-7.16039e-08
-6.14184e-08
-7.36613e-05
-1.28046e-05
0.000139623
2.53693e-05
-1.28046e-05
1.71157e-05
2.53693e-05
-3.18793e-05
1.71158e-05
-0.000145662
-3.18793e-05
0.000265821
-0.000145662
-0.000100112
0.000265822
0.000182635
-0.000100112
2.49813e-05
0.000182635
-4.47656e-05
2.49813e-05
-1.05251e-05
-4.47656e-05
1.89142e-05
-1.05251e-05
4.92805e-06
1.89142e-05
-8.94005e-06
4.92806e-06
-2.34993e-06
-8.94005e-06
4.30617e-06
-2.34993e-06
1.26731e-06
4.30617e-06
-2.32221e-06
1.26731e-06
-7.2406e-07
-2.32221e-06
1.32598e-06
-7.2406e-07
3.7851e-07
1.32598e-06
-6.94615e-07
3.7851e-07
-2.05432e-07
-6.94615e-07
3.77941e-07
-2.05432e-07
1.18798e-07
3.77942e-07
-2.19125e-07
1.18798e-07
-7.16039e-08
-2.19125e-07
1.33186e-07
-7.16039e-08
-6.14184e-08
1.33186e-07
1.14206e-07
2.53693e-05
-3.18793e-05
-5.51279e-05
5.70226e-05
-3.18793e-05
0.000265822
5.70227e-05
-0.000490268
0.000265822
0.000182635
-0.000490268
-0.000338444
0.000182635
-4.47656e-05
-0.000338444
8.23626e-05
-4.47656e-05
1.89142e-05
8.23626e-05
-3.52714e-05
1.89142e-05
-8.94005e-06
-3.52714e-05
1.68285e-05
-8.94005e-06
4.30617e-06
1.68285e-05
-8.09009e-06
4.30617e-06
-2.32221e-06
-8.09009e-06
4.39103e-06
-2.32221e-06
1.32598e-06
4.39103e-06
-2.50976e-06
1.32598e-06
-6.94615e-07
-2.50976e-06
1.32317e-06
-6.94615e-07
3.77942e-07
1.32317e-06
-7.15176e-07
3.77942e-07
-2.19125e-07
-7.15176e-07
4.15675e-07
-2.19125e-07
1.33186e-07
4.15675e-07
-2.53463e-07
5.70227e-05
-0.000213842
-0.000211317
0.000957013
-0.000213842
-0.000490268
0.000957013
0.0010534
-0.000490268
-0.000516767
0.0010534
0.000754751
-0.000516767
-0.000338444
0.000754751
0.000737241
-0.000338444
-8.42071e-05
0.000737241
0.000286252
-8.42071e-05
8.23626e-05
0.000286252
-0.000244881
8.23626e-05
5.16704e-05
-0.000244881
-0.000178499
5.16704e-05
-3.52714e-05
-0.000178499
0.000118624
-3.52714e-05
-2.72898e-05
0.000118624
8.11162e-05
-2.72898e-05
1.68285e-05
8.11162e-05
-4.67505e-05
1.68285e-05
1.375e-05
-4.67505e-05
-2.94921e-05
1.375e-05
-8.09009e-06
-2.94921e-05
3.11045e-05
-8.09009e-06
4.39103e-06
3.11045e-05
-1.57127e-05
4.39103e-06
-2.50976e-06
-1.57127e-05
8.24591e-06
-2.50976e-06
1.32317e-06
8.24591e-06
-4.36895e-06
-0.000211317
0.000957013
7.13136e-05
0.000609977
0.000957013
0.0010534
0.000609977
-0.000805571
0.0010534
0.000754751
-0.000805571
-0.00128607
0.000754751
0.000737241
-0.00128607
-0.000847901
0.000737241
0.000286252
-0.000847901
-0.00012842
0.000286252
-0.000244881
-0.00012842
0.000113171
-0.000244881
-0.000178499
0.000113171
6.63116e-05
-0.000178499
0.000118624
6.63116e-05
-5.01172e-05
0.000118624
8.11162e-05
-5.01172e-05
-4.21959e-05
8.11162e-05
-4.67505e-05
-4.21959e-05
5.60381e-05
-4.67505e-05
-2.94921e-05
5.60381e-05
7.66512e-05
-2.94921e-05
3.11045e-05
7.66512e-05
6.70638e-06
3.11045e-05
1.97862e-05
6.70638e-06