# vtk DataFile Version 2.0
Hex test
ASCII
DATASET UNSTRUCTURED_GRID
POINTS 9388 float
-12 26 0
-12 28 0
-8.16667 26 0
-8.16667 28 0
-12 28 0
-12 30 0
-8.16667 28 0
-8.16667 30 0
-12 30 0
-12 32 0
-8.16667 30 0
-8.16667 32 0
-12 32 0
-12 34 0
-8.16667 32 0
-8.16667 34 0
-12 34 0
-12 36 0
-8.16667 34 0
-8.16667 36 0
-12 36 0
-12 38 0
-8.16667 36 0
-8.16667 38 0
-12 38 0
-12 40 0
-8.16667 38 0
-8.16667 40 0
-12 40 0
-12 42 0
-8.16667 40 0
-8.16667 42 0
-12 42 0
-12 44 0
-8.16667 42 0
-8.16667 44 0
-8.16667 26 0
-8.16667 28 0
-6 26 0
-6 28 0
-8.16667 28 0
-8.16667 30 0
-6 28 0
-6 30 0
-8.16667 30 0
-8.16667 32 0
-6 30 0
-6 32 0
-8.16667 32 0
-8.16667 34 0
-6 32 0
-6 34 0
-8.16667 34 0
-8.16667 36 0
-6 34 0
-6 36 0
-8.16667 36 0
-8.16667 38 0
-6 36 0
-6 38 0
-8.16667 38 0
-8.16667 40 0
-6 38 0
-6 40 0
-8.16667 40 0
-8.16667 42 0
-6 40 0
-6 42 0
-8.16667 42 0
-8.16667 44 0
-6 42 0
-6 44 0
-6 26 0
-6 28 0
-4 26 0
-4 28 0
-6 28 0
-6 30 0
-4 28 0
-4 30 0
-6 30 0
-6 32 0
-4 30 0
-4 32 0
-6 32 0
-6 34 0
-4 32 0
-4 34 0
-6 34 0
-6 36 0
-4 34 0
-4 36 0
-6 36 0
-6 38 0
-4 36 0
-4 38 0
-6 38 0
-6 40 0
-4 38 0
-4 40 0
-6 40 0
-6 42 0
-4 40 0
-4 42 0
-6 42 0
-6 44 0
-4 42 0
-4 44 0
-4 26 0
-4 28 0
-2 26 0
-2 28 0
-4 28 0
-4 30 0
-2 28 0
-2 30 0
-4 30 0
-4 32 0
-2 30 0
-2 32 0
-4 32 0
-4 34 0
-2 32 0
-2 34 0
-4 34 0
-4 36 0
-2 34 0
-2 36 0
-4 36 0
-4 38 0
-2 36 0
-2 38 0
-4 38 0
-4 40 0
-2 38 0
-2 40 0
-4 40 0
-4 42 0
-2 40 0
-2 42 0
-4 42 0
-4 44 0
-2 42 0
-2 44 0
-2 26 0
-2 28 0
-2.77556e-17 26 0
-5.55112e-17 28 0
-2 28 0
-2 30 0
-2.77556e-17 28 0
-5.55112e-17 30 0
-2 30 0
-2 32 0
-2.77556e-17 30 0
-6.93889e-17 32 0
-2 32 0
-2 34 0
-8.32667e-17 32 0
-5.55112e-17 34 0
-2 34 0
-2 35 0
-6.245e-17 34 0
6.245e-17 35 0
-2 35 0
-2 36 0
6.245e-17 35 0
-5.55112e-17 36 0
-2 36 0
-2 37 0
-2.77556e-17 36 0
8.32667e-17 37 0
-2 37 0
-2 38 0
8.32667e-17 37 0
-5.55112e-17 38 0
-2 38 0
-2 39 0
-2.77556e-17 38 0
8.32667e-17 39 0
-2 39 0
-2 40 0
8.32667e-17 39 0
-5.55112e-17 40 0
-2 40 0
-2 41 0
-2.77556e-17 40 0
5.55112e-17 41 0
-2 41 0
-2 42 0
5.55112e-17 41 0
-6.245e-17 42 0
2.77556e-17 26 0
2.42861e-17 27 0
2 26 0
2 27 0
2.42861e-17 27 0
2.77556e-17 28 0
2 27 0
2 28 0
2.77556e-17 28 0
2.42861e-17 29 0
2 28 0
2 29 0
2.42861e-17 29 0
2.77556e-17 30 0
2 29 0
2 30 0
2.77556e-17 30 0
2.94903e-17 31 0
2 30 0
2 31 0
2.94903e-17 31 0
-4.16334e-17 32 0
2 31 0
2 32 0
-2.77556e-17 32 0
-6.93889e-18 33 0
2 32 0
2 33 0
-6.93889e-18 33 0
0 34 0
2 33 0
2 34 0
-6.93889e-18 34 0
3.1225e-17 35 0
2 34 0
2 35 0
3.1225e-17 35 0
2.77556e-17 36 0
2 35 0
2 36 0
2.77556e-17 36 0
8.67362e-17 37 0
2 36 0
2 37 0
8.67362e-17 37 0
2.77556e-17 38 0
2 37 0
2 38 0
2.77556e-17 38 0
8.67362e-17 39 0
2 38 0
2 39 0
8.67362e-17 39 0
2.77556e-17 40 0
2 39 0
2 40 0
2 26 0
2 27 0
4 26 0
4 27 0
2 27 0
2 28 0
4 27 0
4 28 0
2 28 0
2 29 0
4 28 0
4 29 0
2 29 0
2 30 0
4 29 0
4 30 0
2 30 0
2 31 0
4 30 0
4 31 0
2 31 0
2 32 0
4 31 0
4 32 0
2 32 0
2 33 0
4 32 0
4 33 0
2 33 0
2 34 0
4 33 0
4 34 0
2 34 0
2 35 0
4 34 0
4 35 0
2 35 0
2 36 0
4 35 0
4 36 0
2 36 0
2 37 0
4 36 0
4 37 0
2 37 0
2 38 0
4 37 0
4 38 0
2 38 0
2 39 0
4 38 0
4 39 0
2 39 0
2 40 0
4 39 0
4 40 0
4 26 0
4 27 0
6 26 0
6 27 0
4 27 0
4 28 0
6 27 0
6 28 0
4 28 0
4 29 0
6 28 0
6 29 0
4 29 0
4 30 0
6 29 0
6 30 0
4 30 0
4 31 0
6 30 0
6 31 0
4 31 0
4 32 0
6 31 0
6 32 0
4 32 0
4 33 0
6 32 0
6 33 0
4 33 0
4 34 0
6 33 0
6 34 0
4 34 0
4 35 0
5 34 0
5 35 0
5 34 0
5 35 0
6 34 0
6 35 0
4 35 0
4 36 0
5 35 0
5 36 0
5 35 0
5 36 0
6 35 0
6 36 0
4 36 0
4 37 0
5 36 0
5 37 0
4 37 0
4 38 0
5 37 0
5 38 0
5 37 0
5 38 0
6 37 0
6 38 0
5 36 0
5 37 0
6 36 0
6 37 0
4 38 0
4 39 0
5 38 0
5 39 0
5 38 0
5 39 0
6 38 0
6 39 0
6 25 0
6 26 0
7 25 0
7 26 0
7 25 0
7 26 0
8 25 0
8 26 0
6 26 0
6 27 0
7 26 0
7 27 0
6 27 0
6 28 0
7 27 0
7 28 0
7 27 0
7 28 0
8 27 0
8 28 0
7 26 0
7 27 0
8 26 0
8 27 0
6 28 0
6 29 0
7 28 0
7 29 0
6 29 0
6 30 0
7 29 0
7 30 0
7 29 0
7 30 0
8 29 0
8 30 0
7 28 0
7 29 0
8 28 0
8 29 0
6 30 0
6 31 0
7 30 0
7 31 0
6 31 0
6 32 0
7 31 0
7 32 0
7 31 0
7 32 0
8 31 0
8 32 0
7 30 0
7 31 0
8 30 0
8 31 0
6 32 0
6 33 0
7 32 0
7 33 0
6 33 0
6 34 0
7 33 0
7 34 0
7 33 0
7 34 0
8 33 0
8 34 0
7 32 0
7 33 0
8 32 0
8 33 0
6 34 0
6 35 0
7 34 0
7 35 0
6 35 0
6 36 0
7 35 0
7 36 0
7 35 0
7 36 0
8 35 0
8 36 0
7 34 0
7 35 0
8 34 0
8 35 0
6 36 0
6 37 0
7 36 0
7 37 0
6 37 0
6 38 0
7 37 0
7 38 0
7 37 0
7 38 0
8 37 0
8 38 0
7 36 0
7 37 0
8 36 0
8 37 0
8 25 0
8 26 0
9 25 0
9 26 0
9 25 0
9 26 0
10 25 0
10 26 0
8 26 0
8 27 0
9 26 0
9 27 0
8 27 0
8 28 0
9 27 0
9 28 0
9 27 0
9 28 0
10 27 0
10 28 0
9 26 0
9 27 0
10 26 0
10 27 0
8 28 0
8 29 0
9 28 0
9 29 0
8 29 0
8 30 0
9 29 0
9 30 0
9 29 0
9 30 0
10 29 0
10 30 0
9 28 0
9 29 0
10 28 0
10 29 0
8 30 0
8 31 0
9 30 0
9 31 0
8 31 0
8 32 0
9 31 0
9 32 0
9 31 0
9 32 0
10 31 0
10 32 0
9 30 0
9 31 0
10 30 0
10 31 0
8 32 0
8 33 0
9 32 0
9 33 0
8 33 0
8 34 0
9 33 0
9 34 0
8 34 0
8 35 0
9 34 0
9 35 0
8 35 0
8 36 0
9 35 0
9 36 0
8 36 0
8 37 0
9 36 0
9 37 0
8 37 0
8 38 0
9 37 0
9 38 0
10 28 0
10 29 0
11 28 0
11 29 0
10 25 0
10 26 0
11 25 0
11 26 0
-12 44 0
-12 46 0
-8.16667 44 0
-8.16667 46 0
-12 46 0
-12 48 0
-8.16667 46 0
-8.16667 48 0
-12 48 0
-12 50 0
-8.16667 48 0
-8.16667 50 0
-12 50 0
-12 52 0
-8.16667 50 0
-8.16667 52 0
-12 52 0
-12 54 0
-8.16667 52 0
-8.16667 54 0
-12 54 0
-12 56.1667 0
-8.16667 54 0
-8.16667 56.1667 0
-12 56.1667 0
-12 60 0
-8.16667 56.1667 0
-8.16667 60 0
-8.16667 44 0
-8.16667 46 0
-6 44 0
-6 46 0
-8.16667 46 0
-8.16667 48 0
-6 46 0
-6 48 0
-8.16667 48 0
-8.16667 50 0
-6 48 0
-6 50 0
-8.16667 50 0
-8.16667 52 0
-6 50 0
-6 52 0
-8.16667 52 0
-8.16667 54 0
-6 52 0
-6 54 0
-8.16667 54 0
-8.16667 56.1667 0
-6 54 0
-6 56.1667 0
-8.16667 56.1667 0
-8.16667 60 0
-6 56.1667 0
-6 60 0
-6 44 0
-6 46 0
-4 44 0
-4 46 0
-6 46 0
-6 48 0
-4 46 0
-4 48 0
-6 48 0
-6 50 0
-4 48 0
-4 50 0
-6 50 0
-6 52 0
-4 50 0
-4 52 0
-6 52 0
-6 54 0
-4 52 0
-4 54 0
-6 54 0
-6 56.1667 0
-4 54 0
-4 56.1667 0
-6 56.1667 0
-6 60 0
-4 56.1667 0
-4 60 0
-4 44 0
-4 46 0
-2 44 0
-2 46 0
-4 46 0
-4 48 0
-2 46 0
-2 48 0
-4 48 0
-4 50 0
-2 48 0
-2 50 0
-4 50 0
-4 52 0
-2 50 0
-2 52 0
-4 52 0
-4 54 0
-2 52 0
-2 54 0
-4 54 0
-4 56.1667 0
-2 54 0
-2 56.1667 0
-4 56.1667 0
-4 60 0
-2 56.1667 0
-2 60 0
-2 42 0
-2 44 0
-8.32667e-17 42 0
-6.93889e-17 44 0
-2 44 0
-2 46 0
-4.16334e-17 44 0
-5.55112e-17 46 0
-2 46 0
-2 48 0
-2.77556e-17 46 0
-5.55112e-17 48 0
-2 48 0
-2 50 0
-2.77556e-17 48 0
-5.55112e-17 50 0
-2 50 0
-2 52 0
-2.77556e-17 50 0
-5.55112e-17 52 0
-2 52 0
-2 54 0
-2.77556e-17 52 0
-5.55112e-17 54 0
-2 54 0
-2 56.1667 0
-2.77556e-17 54 0
-1.38778e-17 56.1667 0
-2 56.1667 0
-2 60 0
2.77556e-17 56.1667 0
0 60 0
2.77556e-17 40 0
-2.42861e-17 41 0
2 40 0
2 41 0
-2.42861e-17 41 0
-6.93889e-18 42 0
2 41 0
2 42 0
0 42 0
-6.93889e-18 43 0
2 42 0
2 43 0
-6.93889e-18 43 0
-2.77556e-17 44 0
2 43 0
2 44 0
-4.16334e-17 44 0
2.77556e-17 46 0
2 44 0
2 46 0
2.77556e-17 46 0
2.77556e-17 48 0
2 46 0
2 48 0
2.77556e-17 48 0
2.77556e-17 50 0
2 48 0
2 50 0
2.77556e-17 50 0
2.77556e-17 52 0
2 50 0
2 52 0
2.77556e-17 52 0
2.77556e-17 54 0
2 52 0
2 54 0
2.77556e-17 54 0
0 56.1667 0
2 54 0
2 56.1667 0
-1.38778e-17 56.1667 0
0 60 0
2 56.1667 0
2 60 0
2 42 0
2 43 0
4 42 0
4 43 0
2 43 0
2 44 0
4 43 0
4 44 0
2 44 0
2 46 0
4 44 0
4 46 0
2 46 0
2 48 0
4 46 0
4 48 0
2 48 0
2 50 0
4 48 0
4 50 0
2 50 0
2 52 0
4 50 0
4 52 0
2 52 0
2 54 0
4 52 0
4 54 0
2 54 0
2 56.1667 0
4 54 0
4 56.1667 0
2 56.1667 0
2 60 0
4 56.1667 0
4 60 0
4 44 0
4 45 0
6 44 0
6 45 0
4 45 0
4 46 0
6 45 0
6 46 0
4 46 0
4 48 0
6 46 0
6 48 0
4 48 0
4 50 0
6 48 0
6 50 0
4 50 0
4 52 0
6 50 0
6 52 0
4 52 0
4 54 0
6 52 0
6 54 0
4 54 0
4 56.1667 0
6 54 0
6 56.1667 0
4 56.1667 0
4 60 0
6 56.1667 0
6 60 0
6 44 0
6 45 0
8 44 0
8 45 0
6 45 0
6 46 0
8 45 0
8 46 0
6 46 0
6 48 0
8 46 0
8 48 0
6 48 0
6 50 0
8 48 0
8 50 0
6 50 0
6 52 0
8 50 0
8 52 0
6 52 0
6 54 0
8 52 0
8 54 0
6 54 0
6 56.1667 0
8 54 0
8 56.1667 0
6 56.1667 0
6 60 0
8 56.1667 0
8 60 0
8 46 0
8 47 0
10 46 0
10 47 0
8 47 0
8 48 0
10 47 0
10 48 0
8 48 0
8 50 0
10 48 0
10 50 0
8 50 0
8 52 0
10 50 0
10 52 0
8 52 0
8 54 0
10 52 0
10 54 0
8 54 0
8 56.1667 0
10 54 0
10 56.1667 0
8 56.1667 0
8 60 0
10 56.1667 0
10 60 0
10 46 0
10 47 0
12 46 0
12 47 0
10 47 0
10 48 0
12 47 0
12 48 0
10 48 0
10 50 0
12 48 0
12 50 0
10 50 0
10 52 0
12 50 0
12 52 0
10 52 0
10 54 0
12 52 0
12 54 0
10 54 0
10 56.1667 0
12 54 0
12 56.1667 0
10 56.1667 0
10 60 0
12 56.1667 0
12 60 0
2 40 0
2 41 0
4 40 0
4 41 0
2 41 0
2 42 0
4 41 0
4 42 0
14 44 0
14 45 0
15 44 0
15 45 0
14 42 0
14 43 0
15 42 0
15 43 0
14 43 0
14 44 0
15 43 0
15 44 0
4 39 0
4 40 0
5 39 0
5 40 0
5 39 0
5 40 0
6 39 0
6 40 0
4 40 0
4 41 0
5 40 0
5 41 0
5 40 0
5 41 0
6 40 0
6 41 0
4 41 0
4 42 0
5 41 0
5 42 0
5 41 0
5 42 0
6 41 0
6 42 0
4 42 0
4 43 0
6 42 0
6 43 0
4 43 0
4 44 0
6 43 0
6 44 0
12 46 0
12 47 0
14 46 0
14 47 0
12 47 0
12 48 0
14 47 0
14 48 0
12 44 0
12 45 0
13 44 0
13 45 0
13 44 0
13 45 0
14 44 0
14 45 0
12 45 0
12 46 0
13 45 0
13 46 0
13 45 0
13 46 0
14 45 0
14 46 0
12 42 0
12 43 0
13 42 0
13 43 0
12 43 0
12 44 0
13 43 0
13 44 0
13 43 0
13 44 0
14 43 0
14 44 0
13 42 0
13 43 0
14 42 0
14 43 0
12 40 0
12 41 0
13 40 0
13 41 0
12 41 0
12 42 0
13 41 0
13 42 0
13 41 0
13 42 0
14 41 0
14 42 0
6 38 0
6 39 0
7 38 0
7 39 0
6 39 0
6 40 0
7 39 0
7 40 0
7 39 0
7 40 0
8 39 0
8 40 0
7 38 0
7 39 0
8 38 0
8 39 0
6 40 0
6 41 0
7 40 0
7 41 0
6 41 0
6 42 0
7 41 0
7 42 0
7 41 0
7 42 0
8 41 0
8 42 0
7 40 0
7 41 0
8 40 0
8 41 0
6 42 0
6 43 0
7 42 0
7 43 0
7 42 0
7 43 0
8 42 0
8 43 0
6 43 0
6 44 0
7 43 0
7 44 0
7 43 0
7 44 0
8 43 0
8 44 0
10 44 0
10 45 0
11 44 0
11 45 0
11 44 0
11 45 0
12 44 0
12 45 0
10 45 0
10 46 0
11 45 0
11 46 0
11 45 0
11 46 0
12 45 0
12 46 0
10 42 0
10 43 0
11 42 0
11 43 0
10 43 0
10 44 0
11 43 0
11 44 0
11 43 0
11 44 0
12 43 0
12 44 0
11 42 0
11 43 0
12 42 0
12 43 0
10 40 0
10 41 0
11 40 0
11 41 0
10 41 0
10 42 0
11 41 0
11 42 0
11 41 0
11 42 0
12 41 0
12 42 0
11 40 0
11 41 0
12 40 0
12 41 0
10 39 0
10 40 0
11 39 0
11 40 0
8 38 0
8 39 0
9 38 0
9 39 0
8 39 0
8 40 0
9 39 0
9 40 0
9 39 0
9 40 0
10 39 0
10 40 0
9 38 0
9 39 0
[...]
POINT_DATA 9388
SCALARS phi float 1
LOOKUP_TABLE default
4.54128e-05
4.22614e-05
4.56584e-05
3.24476e-05
4.22614e-05
4.14925e-05
3.24476e-05
4.01585e-05
4.14925e-05
2.88156e-05
4.01585e-05
3.22578e-05
2.88156e-05
-2.21876e-06
3.22578e-05
-2.00878e-06
-2.21876e-06
1.31559e-05
-2.00878e-06
1.33697e-05
1.31559e-05
-3.46605e-06
1.33697e-05
-3.6255e-06
-3.46605e-06
1.85297e-06
-3.6255e-06
1.91834e-06
1.85297e-06
-1.16963e-06
1.91834e-06
-1.21878e-06
-1.16963e-06
3.98658e-07
-1.21878e-06
4.38135e-07
4.56584e-05
3.24476e-05
-8.10919e-05
-8.12862e-05
3.24476e-05
4.01585e-05
-8.12862e-05
-7.61717e-05
4.01585e-05
3.22578e-05
-7.61717e-05
-4.89314e-05
3.22578e-05
-2.00878e-06
-4.89314e-05
-8.65974e-07
-2.00878e-06
1.33697e-05
-8.65974e-07
-2.18129e-05
1.33697e-05
-3.6255e-06
-2.18129e-05
5.45963e-06
-3.6255e-06
1.91834e-06
5.45963e-06
-2.94551e-06
1.91834e-06
-1.21878e-06
-2.9455e-06
1.8566e-06
-1.21878e-06
4.38135e-07
1.8566e-06
-6.24191e-07
-8.10919e-05
-8.12862e-05
0.000144547
0.000159024
-8.12862e-05
-7.61717e-05
0.000159024
0.000139455
-7.61717e-05
-4.89314e-05
0.000139455
8.2543e-05
-4.89314e-05
-8.65976e-07
8.25431e-05
4.96098e-06
-8.65974e-07
-2.18129e-05
4.96098e-06
3.7522e-05
-2.18129e-05
5.45963e-06
3.7522e-05
-9.08732e-06
5.45963e-06
-2.9455e-06
-9.08732e-06
4.96409e-06
-2.9455e-06
1.8566e-06
4.96409e-06
-3.10278e-06
1.8566e-06
-6.24191e-07
-3.10278e-06
1.02897e-06
0.000144547
0.000159024
-0.000264078
-0.000304458
0.000159024
0.000139455
-0.000304458
-0.000269042
0.000139455
8.2543e-05
-0.000269042
-0.000151374
8.25431e-05
4.96098e-06
-0.000151374
-1.80862e-05
4.96098e-06
3.7522e-05
-1.80862e-05
-6.85757e-05
3.7522e-05
-9.08732e-06
-6.85757e-05
1.59449e-05
-9.08732e-06
4.96409e-06
1.59449e-05
-9.06748e-06
4.96409e-06
-3.10278e-06
-9.06749e-06
5.54756e-06
-3.10278e-06
1.02897e-06
5.54756e-06
-1.74307e-06
-0.000264078
-0.000304458
0.000514901
0.000529737
-0.000304458
-0.000269042
0.000529737
0.000482335
-0.000269042
-0.000151374
0.000482335
0.000307925
-0.000151374
-1.80862e-05
0.000307925
1.69093e-05
-1.80862e-05
-4.21114e-05
1.69093e-05
-6.32921e-06
-4.21114e-05
-6.85757e-05
-6.32921e-06
5.73257e-06
-6.85757e-05
-3.12368e-05
5.73257e-06
6.59851e-05
-3.12368e-05
1.59449e-05
6.59851e-05
-5.77076e-05
1.59449e-05
1.23512e-05
-5.77076e-05
-6.00748e-05
1.23512e-05
-9.06749e-06
-6.00748e-05
-1.59431e-06
-9.06749e-06
-6.27418e-06
-1.59431e-06
-6.7759e-07
-6.27418e-06
5.54756e-06
-6.7759e-07
-2.12896e-05
0.000514901
0.000545711
-0.00104553
-0.000885395
0.000545711
0.000529737
-0.000885395
-0.000994535
0.000529737
0.000511331
-0.000994535
-0.00108274
0.000511331
0.000482335
-0.00108274
-0.000693144
0.000482335
0.000421519
-0.000693144
-0.000865194
0.000421519
0.000307925
-0.000865194
-0.000603835
0.000307925
0.00014292
-0.000603835
0.000143433
0.00014292
1.69093e-05
0.000143433
-0.000372981
1.69093e-05
-6.32924e-06
-0.000372981
-0.000337843
-6.32924e-06
5.73259e-06
-0.000337843
-0.000506512
5.73257e-06
6.59851e-05
-0.000506512
-0.000226094
6.59851e-05
-5.77076e-05
-0.000226094
2.23941e-05
-5.77076e-05
-6.00748e-05
2.23941e-05
-5.68703e-05
-6.00748e-05
-1.59431e-06
-5.68703e-05
-0.000114536
-0.00104553
-0.000885395
0.00142768
0.00169741
-0.000885395
-0.000994535
0.00169741
0.00160047
-0.000994535
-0.00108274
0.00160047
0.00142272
-0.00108274
-0.000693143
0.00142272
0.00154844
-0.000693144
-0.000865193
0.00154844
0.00108242
-0.000865193
-0.000603835
0.00108242
0.000754785
-0.000603835
0.000143433
0.000754785
0.000665826
0.000143433
-0.000372981
0.000665826
-0.000141807
-0.000372981
-0.000337843
-0.000141807
7.39279e-05
-0.000337843
-0.000506512
7.3928e-05
0.000151477
-0.000506512
-0.000226094
0.000151477
3.06965e-05
-0.000226094
2.23941e-05
3.06965e-05
1.81592e-05
2.23941e-05
-5.68703e-05
1.81592e-05
-4.44561e-05
-5.68703e-05
-0.000114536
-4.44561e-05
9.4648e-06
0.00142768
0.00169741
0.000692696
0.00118925
0.00169741
0.00160047
0.00118925
0.001071
0.00160047
0.00142272
0.001071
0.000835568
0.00142272
0.00154844
0.000835568
0.00130997
0.00154844
0.00108242
0.00130997
0.000520264
0.00108242
0.000754785
0.000520264
0.000362548
0.000754785
0.000665826
0.000362548
0.000713428
0.000665826
-0.000141807
0.000713428
8.27829e-06
-0.000141807
7.3928e-05
0.00104143
-0.00161595
0.00104143
-0.00161595
8.27848e-06
-0.000424391
7.3928e-05
0.000151477
-0.00161595
-0.00336712
-0.00161595
-0.00336712
-0.000424391
-0.00282287
0.000151477
3.06965e-05
-0.00336712
0.000154181
3.06965e-05
1.81592e-05
0.000154181
4.45377e-05
0.000154181
4.45377e-05
-0.000100833
0.00011855
-0.00336712
0.000154181
-0.00282286
-0.000100833
1.81592e-05
-4.44561e-05
4.45378e-05
5.89189e-05
4.45378e-05
5.89189e-05
0.00011855
7.85685e-05
0.000815394
0.000692696
0.00595659
0.00585794
0.00595659
0.00585793
0.0228765
0.0241202
0.000692696
0.00118925
0.00585793
0.00831643
0.00118925
0.001071
0.00831643
0.00954764
0.00831643
0.00954764
0.0478666
0.113397
0.00585793
0.00831643
0.0241202
0.0478666
0.001071
0.000835568
0.00954764
0.00975202
0.000835568
0.00130997
0.00975202
0.00906408
0.00975202
0.00906408
0.134011
0.064919
0.00954764
0.00975202
0.113397
0.134011
0.00130997
0.000520264
0.00906408
0.00511106
0.000520264
0.000362548
0.00511106
0.00312948
0.00511106
0.00312948
0.0230713
0.0190505
0.00906408
0.00511106
0.064919
0.0230713
0.000362548
0.000713428
0.00312948
0.0141104
0.000713428
8.27847e-06
0.0141104
0.0285164
0.0141104
0.0285164
0.110962
0.237112
0.00312948
0.0141104
0.0190505
0.110962
8.27848e-06
-0.000424391
0.0285164
0.0367164
-0.000424391
-0.00282287
0.0367164
0.0112954
0.0367164
0.0112954
0.219398
0.0699255
0.0285164
0.0367164
0.237112
0.219398
-0.00282287
-0.000100833
0.0112954
0.00325514
-0.000100833
0.00011855
0.00325514
0.000179059
0.00325514
0.000179059
0.0261775
0.00360212
0.0112954
0.00325514
0.0699255
0.0261775
0.0228765
0.0241202
0.388917
0.387572
0.388917
0.387572
0.93123
0.930913
0.0241202
0.0478666
0.387572
0.521038
0.0478666
0.113397
0.521038
0.727373
0.521038
0.727373
0.959223
0.986608
0.387572
0.521038
0.930913
0.959223
0.113397
0.134011
0.727373
0.765925
0.134011
0.064919
0.765925
0.579078
0.765925
0.579078
0.987693
0.968975
0.727373
0.765925
0.986608
0.987693
0.064919
0.0230713
0.579078
0.343624
0.0230713
0.0190505
0.343624
0.299579
0.343624
0.299579
0.907726
0.869662
0.579078
0.343624
0.968975
0.907726
0.0190505
0.110962
0.299579
0.501304
0.110962
0.237112
0.501304
0.555664
0.237112
0.219398
0.555664
0.504455
0.219398
0.0699256
0.504455
0.360048
0.0699255
0.0261775
0.360048
0.134001
0.0261775
0.00360212
0.134001
0.0201652
0.986608
0.987693
0.997582
0.998473
0.93123
0.930913
0.990505
0.9905
3.98658e-07
-2.91128e-07
4.38135e-07
-2.82278e-07
-2.91128e-07
1.70832e-07
-2.82278e-07
1.72475e-07
1.70832e-07
-8.50603e-08
1.72475e-07
-8.34437e-08
-8.50603e-08
4.61835e-08
-8.34437e-08
4.67342e-08
4.61835e-08
-2.64634e-08
4.67343e-08
-2.6409e-08
-2.64634e-08
1.57701e-08
-2.6409e-08
1.55654e-08
1.57701e-08
1.32998e-08
1.55654e-08
1.35496e-08
4.38135e-07
-2.82278e-07
-6.24191e-07
4.78062e-07
-2.82277e-07
1.72475e-07
4.78061e-07
-2.81578e-07
1.72475e-07
-8.34437e-08
-2.81578e-07
1.39777e-07
-8.34437e-08
4.67342e-08
1.39777e-07
-7.5851e-08
4.67343e-08
-2.6409e-08
-7.5851e-08
4.44969e-08
-2.6409e-08
1.55654e-08
4.44969e-08
-2.7616e-08
1.55654e-08
1.35496e-08
-2.7616e-08
-2.25674e-08
-6.2419e-07
4.78062e-07
1.02897e-06
-8.33406e-07
4.78061e-07
-2.81578e-07
-8.33406e-07
4.85346e-07
-2.81578e-07
1.39777e-07
4.85346e-07
-2.41499e-07
1.39777e-07
-7.5851e-08
-2.41499e-07
1.30715e-07
-7.58511e-08
4.44969e-08
1.30715e-07
-7.79399e-08
4.44969e-08
-2.7616e-08
-7.79399e-08
4.96372e-08
-2.7616e-08
-2.25674e-08
4.96372e-08
3.97884e-08
1.02897e-06
-8.33406e-07
-1.74307e-06
1.5214e-06
-8.33406e-07
4.85346e-07
1.52139e-06
-8.98852e-07
4.85346e-07
-2.41499e-07
-8.98852e-07
4.67988e-07
-2.41499e-07
1.30715e-07
4.67988e-07
-2.42948e-07
1.30715e-07
-7.79399e-08
-2.42948e-07
1.46877e-07
-7.79399e-08
4.96372e-08
1.46877e-07
-9.46776e-08
4.96372e-08
3.97884e-08
-9.46776e-08
-7.53767e-08
5.54756e-06
-1.74308e-06
-2.12896e-05
7.34251e-06
-1.74307e-06
1.52139e-06
7.34252e-06
-4.35199e-06
1.5214e-06
-8.98852e-07
-4.35199e-06
2.49843e-06
-8.98852e-07
4.67988e-07
2.49843e-06
-1.26211e-06
4.67988e-07
-2.42948e-07
-1.26211e-06
6.98685e-07
-2.42948e-07
1.46877e-07
6.98685e-07
-4.15311e-07
1.46877e-07
-9.46776e-08
-4.15311e-07
2.62937e-07
-9.46776e-08
-7.53767e-08
2.62937e-07
2.2429e-07
-1.59431e-06
-6.77589e-07
-0.000114536
-9.40042e-05
-6.77589e-07
-2.12896e-05
-9.40042e-05
1.98893e-06
-2.12896e-05
-1.13092e-05
1.98893e-06
1.65366e-05
-1.13092e-05
7.34252e-06
1.65366e-05
1.43256e-06
7.34252e-06
-4.35199e-06
1.43256e-06
2.64052e-06
-4.35199e-06
2.49843e-06
2.64052e-06
-1.76021e-06
2.49843e-06
-1.26211e-06
-1.76021e-06
7.34555e-07
-1.26211e-06
6.98685e-07
7.34554e-07
-4.14064e-07
6.98685e-07
-4.15311e-07
-4.14065e-07
2.88812e-07
-4.15311e-07
2.62937e-07
2.88812e-07
-2.34658e-07
2.62937e-07
2.2429e-07
-2.34658e-07
-1.4123e-07
1.98893e-06
1.65366e-05
1.24891e-06
3.44518e-06
1.65366e-05
1.43256e-06
3.44518e-06
6.37348e-06
1.43256e-06
2.64052e-06
6.37348e-06
-4.67023e-06
2.64052e-06
-1.76021e-06
-4.67023e-06
2.57608e-06
-1.76021e-06
7.34555e-07
2.57608e-06
-1.21622e-06
7.34555e-07
-4.14065e-07
-1.21623e-06
6.63851e-07
-4.14064e-07
2.88812e-07
6.63851e-07
-3.8659e-07
2.88812e-07
-2.34658e-07
-3.8659e-07
2.36624e-07
-2.34658e-07
-1.4123e-07
2.36624e-07
2.04004e-07
6.37348e-06
1.62162e-06
2.00936e-05
-1.66997e-05
1.62162e-06
-4.67023e-06
-1.66997e-05
8.49801e-06
-4.67023e-06
2.57608e-06
8.49801e-06
-8.4414e-06
2.57608e-06
-1.21622e-06
-8.4414e-06
3.28121e-06
-1.21622e-06
6.63851e-07
3.28121e-06
-2.13645e-06
6.63851e-07
-3.8659e-07
-2.13645e-06
1.26332e-06
-3.8659e-07
2.36624e-07
1.26332e-06
-8.20068e-07
2.36624e-07
2.04004e-07
-8.20069e-07
-7.28908e-07
2.00936e-05
-1.66997e-05
-7.5978e-07
2.34986e-06
-1.66997e-05
8.49801e-06
2.34986e-06
6.63278e-06
8.49801e-06
-8.4414e-06
6.63278e-06
3.45109e-06
-8.4414e-06
3.28121e-06
3.45109e-06
-5.38153e-07
3.28121e-06
-2.13645e-06
-5.38152e-07
3.38785e-07
-2.13645e-06
1.26332e-06
3.38785e-07
-2.03513e-07
1.26332e-06
-8.20069e-07
-2.03513e-07
1.4727e-07
-8.20069e-07
-7.28908e-07
1.4727e-07
1.36128e-07
6.63278e-06
6.01255e-06
9.08194e-06
-4.16399e-05
6.01255e-06
3.45109e-06
-4.16399e-05
9.22208e-06
3.45109e-06
-5.38153e-07
9.22209e-06
-8.96491e-06
-5.38152e-07
3.38785e-07
-8.96491e-06
4.69881e-06
3.38785e-07
-2.03513e-07
4.69881e-06
-2.78066e-06
-2.03513e-07
1.4727e-07
-2.78066e-06
1.70827e-06
1.4727e-07
1.36128e-07
1.70827e-06
1.52152e-06
9.08195e-06
-4.16399e-05
-5.28409e-05
1.82618e-05
-4.16399e-05
9.22209e-06
1.82618e-05
-1.89868e-05
9.22209e-06
-8.96491e-06
-1.89868e-05
6.02606e-06
-8.96491e-06
4.69881e-06
6.02606e-06
-5.06379e-06
4.69881e-06
-2.78066e-06
-5.0638e-06
3.21099e-06
-2.78066e-06
1.70827e-06
3.21099e-06
-2.25114e-06
1.70827e-06
1.52152e-06
-2.25114e-06
-1.74489e-06
-0.000114536
-9.40042e-05
9.4648e-06
-1.52354e-05
-9.40042e-05
1.98893e-06
-1.52354e-05
1.24891e-06
-1.68129e-05
5.43531e-05
9.77354e-05
-6.87398e-05
5.67869e-05
1.22195e-05
0.000970545
-0.000150324
1.22195e-05
-1.68129e-05
-0.000150324
9.77354e-05
-4.44561e-05
9.4648e-06
5.89189e-05
-4.78542e-05
5.89189e-05
-4.78542e-05
7.85685e-05
-4.51784e-05
9.46479e-06
-1.52354e-05
-4.78542e-05
1.83465e-05
-4.78542e-05
1.83465e-05
-4.51784e-05
-2.91998e-05
-1.52354e-05
1.24891e-06
1.83465e-05
-8.52734e-06
1.83465e-05
-8.52734e-06
-2.91998e-05
-1.13723e-06
1.24891e-06
3.44518e-06
-1.13723e-06
3.20229e-05
3.44518e-06
6.37348e-06
3.20229e-05
2.00936e-05
-5.28409e-05
1.82618e-05
0.000108127
2.67777e-05
1.82618e-05
-1.89868e-05
2.67777e-05
2.45187e-05
2.06749e-05
7.63723e-05
-9.91349e-05
6.08783e-05
-9.91349e-05
6.08783e-05
-1.68129e-05
5.43531e-05
7.63723e-05
-5.28409e-05
6.08784e-05
3.63787e-05
6.08784e-05
3.63787e-05
5.43531e-05
0.000108127
0.000182551
-0.000128949
-0.000345895
0.00018579
-0.000128949
2.06749e-05
0.00018579
-9.91348e-05
0.00018579
-9.91349e-05
1.22195e-05
-1.68129e-05
-0.000345895
0.00018579
5.6787e-05
1.22195e-05
0.000992152
-0.000292326
0.000692296
0.000867025
-0.000292326
0.000182551
0.000867025
-0.000345895
0.000867026
-0.000345895
0.00135124
5.67869e-05
0.00011855
7.85685e-05
0.000179059
5.52487e-05
7.85685e-05
-4.51784e-05
5.52487e-05
-7.69676e-05
5.52486e-05
-7.69676e-05
0.00118025
-0.000532042
0.000179059
5.52487e-05
0.00360212
0.00118025
-4.51784e-05
-2.91998e-05
-7.69676e-05
-4.63195e-06
-2.91998e-05
-1.13723e-06
-4.63195e-06
-7.58361e-06
-4.63196e-06
-7.58361e-06
0.000217847
-9.05059e-05
-7.69676e-05
-4.63194e-06
-0.000532042
0.000217847
-1.13723e-06
3.20229e-05
-7.5836e-06
-3.11545e-05
-7.5836e-06
-3.11545e-05
-9.0506e-05
-4.04287e-05
3.20229e-05
2.00936e-05
-3.11545e-05
2.58247e-05
-3.11545e-05
2.58247e-05
-4.04287e-05
-7.59781e-07
-0.000207471
0.000120412
-0.000235608
6.02201e-06
-0.000235608
6.02201e-06
2.06749e-05
7.63723e-05
0.000120412
9.08194e-06
6.02202e-06
-4.16811e-05
6.02202e-06
-4.16811e-05
7.63723e-05
-5.28409e-05
-0.00100101
0.000341714
-0.00093112
0.000599061
0.000341714
-0.000207471
0.000599061
-0.000235608
0.000599061
-0.000235608
-0.000128949
2.06749e-05
-0.00093112
0.000599061
0.000182551
-0.000128949
-0.0044437
0.002117
-0.00367841
0.00181133
0.002117
-0.00100101
0.00181133
-0.00093112
0.00181133
-0.000931119
-0.000292326
0.000182551
-0.00367841
0.00181133
0.000992152
-0.000292326
0.0100508
-0.0044437
0.00899218
-0.00367841
0.00360212
0.00118025
0.0201652
0.000435592
0.00118025
-0.000532042
0.000435592
-0.000190704
0.000435592
-0.000190704
0.0100508
-0.0044437
0.0201652
0.000435592
0.0436784
0.0100508
-0.000532042
0.000217847
-0.000190704
7.75185e-05
0.000217847
-9.05059e-05
7.75185e-05
-0.000126524
7.75184e-05
-0.000126524
0.002117
-0.00100101
-0.000190704
7.75184e-05
-0.0044437
0.002117
-9.0506e-05
-4.04287e-05
-0.000126524
0.000291988
-0.000126524
0.000291988
-0.00100101
0.000341714
-4.04287e-05
-7.59779e-07
0.000291988
-8.48958e-05
0.000291988
-8.48958e-05
0.000341714
-0.000207471
-7.59776e-07
2.34986e-06
-0.000207471
0.000120412
2.34987e-06
6.63278e-06
0.000120412
9.08195e-06
-1.89868e-05
6.02606e-06
2.45187e-05
-1.3746e-06
6.02606e-06
-5.0638e-06
-1.3746e-06
2.67607e-06
-5.06379e-06
3.21099e-06
2.67607e-06
-1.98554e-06
3.21099e-06
-2.25114e-06
-1.98554e-06
1.91346e-06
-2.25114e-06
-1.74489e-06
1.91346e-06
1.12529e-06
2.45186e-05
-1.3746e-06
-3.28704e-05
2.39374e-06
-1.3746e-06
2.67607e-06
2.39374e-06
-3.25469e-06
2.67607e-06
-1.98554e-06
-3.25469e-06
3.00539e-06
-1.98554e-06
1.91346e-06
3.00539e-06
-3.21922e-06
1.91346e-06
1.12529e-06
-3.21922e-06
-2.06214e-06
-3.28704e-05
2.39374e-06
0.000184331
-1.07848e-05
2.39375e-06
-3.25469e-06
-1.07848e-05
2.22905e-05
-3.25469e-06
3.00539e-06
2.22905e-05
-1.04238e-05
3.00539e-06
-3.21922e-06
-1.04238e-05
3.38674e-06
-3.21922e-06
-2.06214e-06
3.38674e-06
4.71664e-06
0.000184331
-1.07848e-05
0.000257579
4.38775e-05
-1.07848e-05
2.22905e-05
4.38775e-05
-8.4956e-06
2.22905e-05
-1.04238e-05
-8.4956e-06
6.7409e-06
-1.04238e-05
3.38674e-06
6.7409e-06
-5.20927e-06
3.38674e-06
4.71664e-06
-5.20927e-06
-3.99399e-06
0.000257579
4.38775e-05
4.46794e-05
2.06703e-05
4.38775e-05
-8.4956e-06
2.06703e-05
-1.06424e-05
-8.4956e-06
6.74089e-06
-1.06424e-05
7.84559e-06
6.7409e-06
-5.20927e-06
7.84559e-06
-6.41597e-06
-5.20927e-06
-3.99399e-06
-6.41597e-06
-4.01685e-06
-0.000115962
0.000127463
-8.50719e-05
0.000284399
0.000127463
4.46794e-05
0.000284399
0.000166434
4.46794e-05
2.06703e-05
0.000166434
4.06506e-05
2.06703e-05
-1.06424e-05
4.06506e-05
-1.22071e-05
-1.06424e-05
7.84559e-06
-1.22071e-05
9.3358e-06
7.84559e-06
-6.41597e-06
9.3358e-06
-7.53469e-06
-6.41597e-06
-4.01685e-06
-7.53469e-06
-5.2823e-06
0.000166434
4.06506e-05
0.000304415
6.00131e-05
4.06506e-05
-1.22071e-05
6.00131e-05
-1.51606e-05
-1.22071e-05
9.3358e-06
-1.51606e-05
1.10504e-05
9.33579e-06
-7.53469e-06
1.10504e-05
-8.18021e-06
-7.53469e-06
-5.2823e-06
-8.18021e-06
-5.94941e-06
0.000304415
6.00131e-05
0.000322459
3.96669e-05
0.0102028
-0.00485367
0.00368582
-0.00156433
-0.00485367
0.00197862
-0.00156433
0.000611474
-0.000624401
0.000769477
0.00120594
-0.000997165
0.000769477
0.000308221
-0.000997165
0.000790906
-0.000997165
0.000790906
-0.0011551
0.00090952
0.00120594
-0.000997165
0.00197862
-0.0011551
-0.00270521
0.00157019
0.00706503
-0.00304319
0.00157019
-0.000624401
-0.00304319
0.00120594
-0.00304319
0.00120594
-0.00485367
0.00197862
0.00706503
-0.00304319
0.0102028
-0.00485367
0.0131479
-0.00270521
0.0234736
0.00706503
0.000182137
0.00059489
0.000159961
0.000512994
0.000159961
0.000512994
0.000308221
0.000435046
0.00059489
0.000304415
0.000512994
0.00032608
0.000512994
0.00032608
0.000435046
0.000322459
-0.00129573
0.00108782
-0.00124378
0.00133198
0.00108782
0.000182137
0.00133198
0.000159961
0.00133198
0.000159961
0.000769477
0.000308221
-0.00124378
0.00133198
-0.000624401
0.000769477
-0.00541878
0.00285689
-0.00551905
0.00290021
0.00285689
-0.00129573
0.00290021
-0.00124378
0.00290021
-0.00124378
0.00157019
-0.000624401
-0.00551905
0.00290021
-0.00270521
0.00157019
0.0859115
0.0137285
0.0841054
0.0140394
0.0137285
-0.00541878
0.0140394
-0.00551905
0.0140394
-0.00551905
0.0131479
-0.00270521
-8.50719e-05
0.000284399
0.000182137
0.00059489
0.000284399
0.000166434
0.00059489
0.000304415
-0.00128326
0.000820877
-0.0013702
0.000925478
-0.0013702
0.000925478
-0.00129573
0.00108782
0.000820877
-8.50719e-05
0.000925478
7.49226e-05
0.000925478
7.49226e-05
0.00108782
0.000182137
-0.0051456
0.00269382
-0.00553971
0.00289497
0.00269382
-0.00128326
0.00289497
-0.0013702
0.00289497
-0.0013702
0.00285689
-0.00129573
-0.00553971
0.00289497
-0.00541878
0.00285689
0.0418658
0.0119228
0.0748281
0.0136666
0.0119228
-0.0051456
0.0136666
-0.00553971
0.0136666
-0.00553971
0.0137285
-0.00541878
0.0748281
0.0136666
0.0859115
0.0137285
0.514886
0.0418658
0.648568
0.0748281
0.648568
0.0748281
0.686253
0.0859115
-0.000793661
0.000522379
-0.000931937
0.000615163
-0.000931937
0.000615163
-0.00128326
0.000820877
0.000522379
-0.000115962
0.000615163
-0.000156999
0.000615163
-0.000156999
0.000820877
-8.50719e-05
-0.00328814
0.00170118
-0.0036928
0.00192576
0.00170118
-0.000793661
0.00192576
-0.000931937
0.00192576
-0.000931937
0.00269382
-0.00128326
-0.0036928
0.00192576
-0.0051456
0.00269382
0.0202249
0.00738061
0.0232498
0.00858673
0.00738061
-0.00328814
0.00858673
-0.0036928
0.00858673
-0.0036928
0.0119228
-0.0051456
0.0232498
0.00858673
0.0418658
0.0119228
0.36966
0.0202249
0.393304
0.0232498
0.393304
0.0232498
0.514886
0.0418658
0.000289489
0.000507907
-0.000115962
0.000127463
0.000507907
0.000257579
0.000127463
4.46794e-05
-0.00112856
0.000501956
-0.00116105
0.000712785
-0.00116105
0.000712785
-0.000793661
0.000522379
0.000501956
0.000289489
0.000712786
3.40469e-05
0.000712786
3.40469e-05
0.000522379
-0.000115962
-0.00417344
0.00227295
-0.00462441
0.00246923
0.00227294
-0.00112856
0.00246923
-0.00116105
0.00246923
-0.00116105
0.00170118
-0.00079366
-0.00462441
0.00246923
-0.00328814
0.00170118
0.106492
0.0143472
0.0381124
0.011143
0.0143472
-0.00417345
0.011143
-0.00462441
0.011143
-0.00462441
0.00738061
-0.00328814
0.0381124
0.011143
0.0202249
0.00738061
0.47775
0.0381124
0.36966
0.0202249
0.000589335
0.000224194
0.000586218
0.000463566
0.000586218
0.000463566
0.000289489
0.000507907
0.000224194
0.000184331
0.000463566
0.000268423
0.000463566
0.000268423
0.000507907
0.000257579
0.00129695
-0.00058574
0.000522685
-0.00018909
-0.00058574
0.000589335
-0.00018909
0.000586218
-0.00018909
0.000586218
0.000501956
0.000289489
0.000522686
-0.00018909
-0.00112856
0.000501956
0.00775691
-0.00249115
0.00335566
-0.00106514
-0.00249115
0.00129695
-0.00106514
0.000522685
-0.00106514
0.000522685
0.00227295
-0.00112856
0.00335566
-0.00106514
-0.00417344
0.00227295
0.0357631
0.00775691
0.0210022
0.00335566
0.0210022
0.00335566
0.0143472
-0.00417344
0.276086
0.0210022
0.106492
0.0143472
-0.000184014
-6.92101e-05
8.1039e-05
-2.92901e-05
8.1039e-05
-2.92901e-05
0.000589335
0.000224194
-6.92101e-05
-3.28704e-05
-2.92901e-05
5.48677e-05
-2.92901e-05
5.48677e-05
0.000224194
0.000184331