# vtk DataFile Version 2.0
Hex test
ASCII
DATASET UNSTRUCTURED_GRID
POINTS 10400 float
22 20 0
22 22 0
24 20 0
24 22 0
22 22 0
22 24 0
24 22 0
24 24 0
24 18 0
24 20 0
26 18 0
26 20 0
24 20 0
24 22 0
26 20 0
26 22 0
24 22 0
24 24 0
26 22 0
26 24 0
24 24 0
24 26 0
26 24 0
26 26 0
24 26 0
24 28 0
26 26 0
26 28 0
24 30 0
24 32 0
26 30 0
26 32 0
26 16 0
26 18 0
28 16 0
28 18 0
26 18 0
26 20 0
28 18 0
28 20 0
26 20 0
26 22 0
28 20 0
28 22 0
26 22 0
26 24 0
28 22 0
28 24 0
26 24 0
26 26 0
28 24 0
28 26 0
26 26 0
26 28 0
28 26 0
28 28 0
26 28 0
26 30 0
28 28 0
28 30 0
26 30 0
26 32 0
28 30 0
28 32 0
28 16 0
28 18 0
30 16 0
30 18 0
28 18 0
28 20 0
30 18 0
30 20 0
28 20 0
28 22 0
30 20 0
30 22 0
28 22 0
28 24 0
30 22 0
30 24 0
28 24 0
28 26 0
30 24 0
30 26 0
28 26 0
28 28 0
30 26 0
30 28 0
28 28 0
28 30 0
30 28 0
30 30 0
28 30 0
28 32 0
30 30 0
30 32 0
30 16 0
30 18 0
32 16 0
32 18 0
30 18 0
30 20 0
32 18 0
32 20 0
30 20 0
30 22 0
32 20 0
32 22 0
30 22 0
30 24 0
32 22 0
32 24 0
30 24 0
30 26 0
32 24 0
32 26 0
30 26 0
30 28 0
32 26 0
32 28 0
30 28 0
30 30 0
32 28 0
32 30 0
30 30 0
30 32 0
32 30 0
32 32 0
32 16 0
32 17 0
34 16 0
34 17 0
32 17 0
32 18 0
34 17 0
34 18 0
32 18 0
32 19 0
34 18 0
34 19 0
32 19 0
32 20 0
34 19 0
34 20 0
32 20 0
32 21 0
34 20 0
34 21 0
32 21 0
32 22 0
34 21 0
34 22 0
32 22 0
32 23 0
34 22 0
34 23 0
32 23 0
32 24 0
34 23 0
34 24 0
32 24 0
32 25 0
34 24 0
34 25 0
32 25 0
32 26 0
34 25 0
34 26 0
32 26 0
32 27 0
34 26 0
34 27 0
32 27 0
32 28 0
34 27 0
34 28 0
32 28 0
32 29 0
34 28 0
34 29 0
32 29 0
32 30 0
34 29 0
34 30 0
32 30 0
32 31 0
34 30 0
34 31 0
32 31 0
32 32 0
34 31 0
34 32 0
32 32 0
32 33 0
34 32 0
34 33 0
32 33 0
32 34 0
34 33 0
34 34 0
34 16 0
34 17 0
36 16 0
36 17 0
34 17 0
34 18 0
36 17 0
36 18 0
34 18 0
34 19 0
36 18 0
36 19 0
34 19 0
34 20 0
36 19 0
36 20 0
34 20 0
34 21 0
36 20 0
36 21 0
34 21 0
34 22 0
36 21 0
36 22 0
34 22 0
34 23 0
36 22 0
36 23 0
34 23 0
34 24 0
36 23 0
36 24 0
34 24 0
34 25 0
36 24 0
36 25 0
34 25 0
34 26 0
36 25 0
36 26 0
34 26 0
34 27 0
36 26 0
36 27 0
34 27 0
34 28 0
36 27 0
36 28 0
34 28 0
34 29 0
36 28 0
36 29 0
34 29 0
34 30 0
36 29 0
36 30 0
34 30 0
34 31 0
36 30 0
36 31 0
34 31 0
34 32 0
36 31 0
36 32 0
42 26 0
42 27 0
43 26 0
43 27 0
42 24 0
42 25 0
43 24 0
43 25 0
42 25 0
42 26 0
43 25 0
43 26 0
43 24 0
43 25 0
44 24 0
44 25 0
42 22 0
42 23 0
43 22 0
43 23 0
42 23 0
42 24 0
43 23 0
43 24 0
43 23 0
43 24 0
44 23 0
44 24 0
42 21 0
42 22 0
43 21 0
43 22 0
40 30 0
40 31 0
41 30 0
41 31 0
40 31 0
40 32 0
41 31 0
41 32 0
40 28 0
40 29 0
41 28 0
41 29 0
40 29 0
40 30 0
41 29 0
41 30 0
41 29 0
41 30 0
42 29 0
42 30 0
41 28 0
41 29 0
42 28 0
42 29 0
40 26 0
40 27 0
41 26 0
41 27 0
40 27 0
40 28 0
41 27 0
41 28 0
41 27 0
41 28 0
42 27 0
42 28 0
41 26 0
41 27 0
42 26 0
42 27 0
40 24 0
40 25 0
41 24 0
41 25 0
40 25 0
40 26 0
41 25 0
41 26 0
41 25 0
41 26 0
42 25 0
42 26 0
41 24 0
41 25 0
42 24 0
42 25 0
40 22 0
40 23 0
41 22 0
41 23 0
40 23 0
40 24 0
41 23 0
41 24 0
41 23 0
41 24 0
42 23 0
42 24 0
41 22 0
41 23 0
42 22 0
42 23 0
40 20 0
40 21 0
41 20 0
41 21 0
40 21 0
40 22 0
41 21 0
41 22 0
41 21 0
41 22 0
42 21 0
42 22 0
41 20 0
41 21 0
42 20 0
42 21 0
40 18 0
40 19 0
41 18 0
41 19 0
40 19 0
40 20 0
41 19 0
41 20 0
38 32 0
38 33 0
39 32 0
39 33 0
38 33 0
38 34 0
39 33 0
39 34 0
39 32 0
39 33 0
40 32 0
40 33 0
38 30 0
38 31 0
39 30 0
39 31 0
38 31 0
38 32 0
39 31 0
39 32 0
39 31 0
39 32 0
40 31 0
40 32 0
39 30 0
39 31 0
40 30 0
40 31 0
38 28 0
38 29 0
39 28 0
39 29 0
38 29 0
38 30 0
39 29 0
39 30 0
39 29 0
39 30 0
40 29 0
40 30 0
39 28 0
39 29 0
40 28 0
40 29 0
38 26 0
38 27 0
39 26 0
39 27 0
38 27 0
38 28 0
39 27 0
39 28 0
39 27 0
39 28 0
40 27 0
40 28 0
39 26 0
39 27 0
40 26 0
40 27 0
38 24 0
38 25 0
39 24 0
39 25 0
38 25 0
38 26 0
39 25 0
39 26 0
39 25 0
39 26 0
40 25 0
40 26 0
39 24 0
39 25 0
40 24 0
40 25 0
38 22 0
38 23 0
39 22 0
39 23 0
38 23 0
38 24 0
39 23 0
39 24 0
39 23 0
39 24 0
40 23 0
40 24 0
39 22 0
39 23 0
40 22 0
40 23 0
38 20 0
38 21 0
39 20 0
39 21 0
38 21 0
38 22 0
39 21 0
39 22 0
39 21 0
39 22 0
40 21 0
40 22 0
39 20 0
39 21 0
40 20 0
40 21 0
38 18 0
38 19 0
39 18 0
39 19 0
38 19 0
38 20 0
39 19 0
39 20 0
39 19 0
39 20 0
40 19 0
40 20 0
39 18 0
39 19 0
40 18 0
40 19 0
38 16 0
38 17 0
39 16 0
39 17 0
38 17 0
38 18 0
39 17 0
39 18 0
39 17 0
39 18 0
40 17 0
40 18 0
38 15 0
38 16 0
39 15 0
39 16 0
36 32 0
36 33 0
37 32 0
37 33 0
37 32 0
37 33 0
38 32 0
38 33 0
36 33 0
36 34 0
37 33 0
37 34 0
37 33 0
37 34 0
38 33 0
38 34 0
36 30 0
36 31 0
38 30 0
38 31 0
36 31 0
36 32 0
38 31 0
38 32 0
36 28 0
36 29 0
38 28 0
38 29 0
36 29 0
36 30 0
38 29 0
38 30 0
36 26 0
36 27 0
38 26 0
38 27 0
36 27 0
36 28 0
38 27 0
38 28 0
36 24 0
36 25 0
38 24 0
38 25 0
36 25 0
36 26 0
38 25 0
38 26 0
36 22 0
36 23 0
38 22 0
38 23 0
36 23 0
36 24 0
38 23 0
38 24 0
36 20 0
36 21 0
38 20 0
38 21 0
36 21 0
36 22 0
38 21 0
38 22 0
36 18 0
36 19 0
38 18 0
38 19 0
36 19 0
36 20 0
38 19 0
38 20 0
36 16 0
36 17 0
38 16 0
38 17 0
36 17 0
36 18 0
38 17 0
38 18 0
36 15 0
36 16 0
37 15 0
37 16 0
37 15 0
37 16 0
38 15 0
38 16 0
34 32 0
34 33 0
36 32 0
36 33 0
34 33 0
34 34 0
36 33 0
36 34 0
44 40 0
44 41 0
46 40 0
46 41 0
44 41 0
44 42 0
46 41 0
46 42 0
46 24 0
46 25 0
48 24 0
48 25 0
46 25 0
46 26 0
48 25 0
48 26 0
46 26 0
46 27 0
48 26 0
48 27 0
46 27 0
46 28 0
48 27 0
48 28 0
46 28 0
46 29 0
48 28 0
48 29 0
46 29 0
46 30 0
48 29 0
48 30 0
46 30 0
46 31 0
48 30 0
48 31 0
46 31 0
46 32 0
48 31 0
48 32 0
46 32 0
46 33 0
48 32 0
48 33 0
46 33 0
46 34 0
48 33 0
48 34 0
46 34 0
46 35 0
48 34 0
48 35 0
46 35 0
46 36 0
48 35 0
48 36 0
46 36 0
46 37 0
48 36 0
48 37 0
46 37 0
46 38 0
48 37 0
48 38 0
46 38 0
46 39 0
48 38 0
48 39 0
46 39 0
46 40 0
48 39 0
48 40 0
46 40 0
46 41 0
48 40 0
48 41 0
46 41 0
46 42 0
48 41 0
48 42 0
48 23 0
48 24 0
50 23 0
50 24 0
48 24 0
48 25 0
50 24 0
50 25 0
48 25 0
48 26 0
50 25 0
50 26 0
48 26 0
48 27 0
50 26 0
50 27 0
48 27 0
48 28 0
50 27 0
50 28 0
48 28 0
48 29 0
50 28 0
50 29 0
48 29 0
48 30 0
50 29 0
50 30 0
48 30 0
48 31 0
50 30 0
50 31 0
48 31 0
48 32 0
50 31 0
50 32 0
48 32 0
48 33 0
50 32 0
50 33 0
48 33 0
48 34 0
50 33 0
50 34 0
48 34 0
48 35 0
50 34 0
50 35 0
48 35 0
48 36 0
50 35 0
50 36 0
48 36 0
48 37 0
50 36 0
50 37 0
48 37 0
48 38 0
50 37 0
50 38 0
48 38 0
48 39 0
50 38 0
50 39 0
48 39 0
48 40 0
50 39 0
50 40 0
48 40 0
48 42 0
50 40 0
50 42 0
48 42 0
48 44 0
50 42 0
50 44 0
50 24 0
50 26 0
52 24 0
52 26 0
50 26 0
50 28 0
52 26 0
52 28 0
50 28 0
50 30 0
52 28 0
52 30 0
50 30 0
50 32 0
52 30 0
52 32 0
50 32 0
50 34 0
52 32 0
52 34 0
50 34 0
50 36 0
52 34 0
52 36 0
50 36 0
50 38 0
52 36 0
52 38 0
50 38 0
50 40 0
52 38 0
52 40 0
50 40 0
50 42 0
52 40 0
52 42 0
50 42 0
50 44 0
52 42 0
52 44 0
52 24 0
52 26 0
54 24 0
54 26 0
52 26 0
52 28 0
54 26 0
54 28 0
52 28 0
52 30 0
54 28 0
54 30 0
52 30 0
52 32 0
54 30 0
54 32 0
52 32 0
52 34 0
54 32 0
54 34 0
52 34 0
52 36 0
54 34 0
54 36 0
52 36 0
52 38 0
54 36 0
54 38 0
52 38 0
52 40 0
54 38 0
54 40 0
52 40 0
52 42 0
54 40 0
54 42 0
52 42 0
52 44 0
54 42 0
54 44 0
54 24 0
54 26 0
56.1667 24 0
56.1667 26 0
54 26 0
54 28 0
56.1667 26 0
56.1667 28 0
54 28 0
54 30 0
56.1667 28 0
56.1667 30 0
54 30 0
54 32 0
56.1667 30 0
56.1667 32 0
54 32 0
54 34 0
56.1667 32 0
56.1667 34 0
54 34 0
54 36 0
56.1667 34 0
56.1667 36 0
54 36 0
54 38 0
56.1667 36 0
56.1667 38 0
54 38 0
54 40 0
56.1667 38 0
56.1667 40 0
54 40 0
54 42 0
56.1667 40 0
56.1667 42 0
54 42 0
54 44 0
56.1667 42 0
56.1667 44 0
56.1667 24 0
56.1667 26 0
60 24 0
60 26 0
56.1667 26 0
56.1667 28 0
60 26 0
60 28 0
56.1667 28 0
56.1667 30 0
60 28 0
60 30 0
56.1667 30 0
56.1667 32 0
60 30 0
60 32 0
56.1667 32 0
56.1667 34 0
60 32 0
60 34 0
56.1667 34 0
56.1667 36 0
60 34 0
60 36 0
56.1667 36 0
56.1667 38 0
60 36 0
60 38 0
56.1667 38 0
56.1667 40 0
60 38 0
60 40 0
56.1667 40 0
56.1667 42 0
60 40 0
60 42 0
56.1667 42 0
56.1667 44 0
60 42 0
60 44 0
44 38 0
44 39 0
46 38 0
46 39 0
44 39 0
44 40 0
46 39 0
46 40 0
44 36 0
44 37 0
46 36 0
46 37 0
44 37 0
44 38 0
46 37 0
46 38 0
44 34 0
44 35 0
46 34 0
46 35 0
44 35 0
44 36 0
46 35 0
46 36 0
44 32 0
44 33 0
46 32 0
46 33 0
44 33 0
44 34 0
46 33 0
46 34 0
44 30 0
44 31 0
46 30 0
46 31 0
44 31 0
44 32 0
46 31 0
46 32 0
44 28 0
44 29 0
46 28 0
46 29 0
44 29 0
44 30 0
46 29 0
46 30 0
44 26 0
44 27 0
46 26 0
46 27 0
44 27 0
44 28 0
46 27 0
46 28 0
44 24 0
44 25 0
46 24 0
46 25 0
44 25 0
44 26 0
46 25 0
46 26 0
42 40 0
42 41 0
44 40 0
44 41 0
42 38 0
42 39 0
43 38 0
43 39 0
43 38 0
43 39 0
44 38 0
44 39 0
42 39 0
42 40 0
43 39 0
43 40 0
43 39 0
43 40 0
44 39 0
44 40 0
42 36 0
42 37 0
43 36 0
43 37 0
42 37 0
42 38 0
43 37 0
43 38 0
43 37 0
43 38 0
44 37 0
44 38 0
43 36 0
43 37 0
44 36 0
44 37 0
42 34 0
42 35 0
43 34 0
43 35 0
42 35 0
42 36 0
43 35 0
43 36 0
43 35 0
43 36 0
44 35 0
44 36 0
43 34 0
43 35 0
44 34 0
44 35 0
42 32 0
42 33 0
43 32 0
43 33 0
42 33 0
42 34 0
43 33 0
43 34 0
43 33 0
43 34 0
44 33 0
44 34 0
43 32 0
43 33 0
44 32 0
44 33 0
42 30 0
42 31 0
43 30 0
43 31 0
42 31 0
42 32 0
43 31 0
43 32 0
43 31 0
43 32 0
44 31 0
44 32 0
43 30 0
43 31 0
44 30 0
44 31 0
42 28 0
42 29 0
43 28 0
43 29 0
42 29 0
42 30 0
43 29 0
43 30 0
43 29 0
43 30 0
44 29 0
44 30 0
43 28 0
43 29 0
44 28 0
44 29 0
42 27 0
42 28 0
43 27 0
43 28 0
43 27 0
43 28 0
44 27 0
44 28 0
43 26 0
43 27 0
44 26 0
44 27 0
43 25 0
43 26 0
44 25 0
44 26 0
40 40 0
40 41 0
41 40 0
41 41 0
41 40 0
41 41 0
42 40 0
42 41 0
40 38 0
40 39 0
41 38 0
41 39 0
40 39 0
40 40 0
41 39 0
41 40 0
41 39 0
41 40 0
42 39 0
42 40 0
41 38 0
41 39 0
42 38 0
42 39 0
40 36 0
40 37 0
41 36 0
41 37 0
40 37 0
40 38 0
41 37 0
41 38 0
41 37 0
41 38 0
42 37 0
42 38 0
41 36 0
41 37 0
42 36 0
42 37 0
40 34 0
40 35 0
41 34 0
41 35 0
40 35 0
40 36 0
41 35 0
41 36 0
41 35 0
41 36 0
42 35 0
42 36 0
41 34 0
41 35 0
42 34 0
42 35 0
40 32 0
40 33 0
41 32 0
41 33 0
40 33 0
40 34 0
41 33 0
41 34 0
41 33 0
41 34 0
42 33 0
42 34 0
41 32 0
41 33 0
42 32 0
42 33 0
41 31 0
41 32 0
42 31 0
42 32 0
41 30 0
41 31 0
42 30 0
42 31 0
38 38 0
38 39 0
39 38 0
39 39 0
38 39 0
38 40 0
39 39 0
39 40 0
39 39 0
39 40 0
[...]
POINT_DATA 10400
SCALARS phi float 1
LOOKUP_TABLE default
1.00001
0.999991
0.999749
0.999846
0.99999
1.00005
0.999846
0.999894
0.999952
0.999749
1.00056
1.00028
0.999749
0.999846
1.00028
1.00044
0.999846
0.999894
1.00044
1.0004
0.999894
0.999719
1.0004
1.00035
0.999719
1.00007
1.00035
1.00049
0.999325
1.00088
1.00019
1.0004
1.00001
1.00056
0.999438
0.999293
1.00056
1.00028
0.999293
0.999279
1.00028
1.00044
0.999279
0.999198
1.00044
1.0004
0.999198
0.999201
1.0004
1.00035
0.999201
0.999195
1.00035
1.00049
0.999195
0.999261
1.00049
1.00019
0.999261
0.999181
1.00019
1.0004
0.99918
0.999943
0.999438
0.999293
1.00098
1.00124
0.999293
0.999279
1.00124
1.00132
0.999279
0.999198
1.00132
1.00153
0.999198
0.999201
1.00153
1.00148
0.999201
0.999195
1.00148
1.00158
0.999195
0.999261
1.00158
1.00125
0.999261
0.99918
1.00125
1.00165
0.99918
0.999943
1.00165
0.999615
1.00098
1.00124
0.997086
0.99713
1.00124
1.00132
0.99713
0.998157
1.00132
1.00153
0.998157
0.997152
1.00153
1.00148
0.997152
0.997501
1.00148
1.00158
0.997501
0.996998
1.00158
1.00125
0.996998
0.998396
1.00125
1.00165
0.998396
0.996281
1.00165
0.999615
0.996281
1.00071
0.997086
0.996485
1.00476
1.00522
0.996485
0.99713
1.00522
1.00541
0.99713
0.997898
1.00541
1.00523
0.997898
0.998157
1.00523
1.00513
0.998157
0.997655
1.00513
1.00506
0.997655
0.997152
1.00506
1.00478
0.997152
0.997324
1.00478
1.00445
0.997324
0.997501
1.00445
1.00475
0.997501
0.99707
1.00475
1.0046
0.99707
0.996998
1.0046
1.00468
0.996998
0.998025
1.00468
1.00504
0.998025
0.998396
1.00504
1.00557
0.998396
0.996812
1.00557
1.00619
0.996812
0.996281
1.00619
1.00636
0.996281
0.999139
1.00636
1.00482
0.999139
1.00071
1.00482
1.00001
1.00071
0.999289
1.00001
0.995856
0.999289
1.00515
0.995856
0.995182
1.00476
1.00522
0.990543
0.990916
1.00522
1.00541
0.990916
0.99349
1.00541
1.00523
0.99349
0.994046
1.00523
1.00513
0.994046
0.993515
1.00513
1.00506
0.993515
0.993576
1.00506
1.00478
0.993576
0.993695
1.00478
1.00445
0.993695
0.993395
1.00445
1.00475
0.993395
0.993559
1.00475
1.0046
0.993559
0.993531
1.0046
1.00468
0.993531
0.993527
1.00468
1.00504
0.993527
0.993542
1.00504
1.00557
0.993542
0.993254
1.00557
1.00619
0.993254
0.992691
1.00619
1.00636
0.992691
0.993105
1.00636
1.00482
0.993106
0.994414
1.00482
1.00001
0.994414
0.999911
0.000578848
0.000560193
-0.000214033
-0.000209852
0.000472152
0.000548203
-0.000174905
-0.000200695
0.000548203
0.000578847
-0.000200695
-0.000214033
-0.000174905
-0.000200696
-2.40981e-05
-3.30878e-05
0.00057911
0.000398032
-0.000208754
-0.000147134
0.000398032
0.000472152
-0.000147134
-0.000174905
-0.000147134
-0.000174905
-1.83344e-05
-2.40981e-05
0.000619336
0.00057911
-0.000250097
-0.000208754
0.00833103
0.00896232
-0.00095498
-0.00172011
0.00896232
0.0126329
-0.00172011
-0.00463404
0.00865663
0.0082217
-0.000902459
-0.000854052
0.0082217
0.00833103
-0.000854052
-0.000954979
-0.000854052
-0.00095498
0.000559971
0.000577342
-0.000902459
-0.000854052
0.000607319
0.000559971
0.0086707
0.00827114
-0.000841395
-0.00080137
0.00827114
0.00865663
-0.00080137
-0.000902459
-0.00080137
-0.00090246
0.000560193
0.000607319
-0.000841395
-0.00080137
0.000578847
0.000560193
0.00856677
0.00829875
-0.00062029
-0.00076672
0.00829875
0.0086707
-0.000766719
-0.000841395
-0.00076672
-0.000841395
0.000548203
0.000578847
-0.00062029
-0.000766719
0.000472152
0.000548203
0.00852546
0.00767546
-0.000797755
-0.000471365
0.00767546
0.00856677
-0.000471365
-0.00062029
-0.000471365
-0.00062029
0.000398032
0.000472152
-0.000797755
-0.000471365
0.00057911
0.000398032
0.00868013
0.00882949
-0.00115922
-0.00098834
0.00882949
0.00852546
-0.00098834
-0.000797755
-0.00098834
-0.000797755
0.000619336
0.00057911
-0.00115922
-0.00098834
0.000833804
0.000619336
0.0100839
0.00870391
-0.000649789
-0.00188432
0.00870391
0.00868013
-0.00188432
-0.00115922
0.659127
0.427544
0.0817673
0.012763
0.427544
0.103278
0.012763
0.0197099
0.0817673
0.012763
0.0126329
0.014426
0.743825
0.727947
0.148656
0.135497
0.727947
0.659127
0.135497
0.0817673
0.135497
0.0817673
0.00896232
0.0126329
0.148656
0.135497
0.00833103
0.00896232
0.743095
0.744474
0.148784
0.149144
0.744474
0.743825
0.149144
0.148656
0.149144
0.148656
0.0082217
0.00833103
0.148784
0.149144
0.00865663
0.0082217
0.742265
0.741849
0.149526
0.148664
0.741849
0.743095
0.148664
0.148784
0.148664
0.148784
0.00827114
0.00865663
0.149526
0.148664
0.0086707
0.00827114
0.744033
0.742672
0.153612
0.149114
0.742672
0.742265
0.149114
0.149526
0.149114
0.149526
0.00829876
0.0086707
0.153612
0.149114
0.00856677
0.00829875
0.741513
0.745523
0.149162
0.152759
0.745523
0.744032
0.152759
0.153612
0.152759
0.153612
0.00767546
0.00856677
0.149162
0.152759
0.00852546
0.00767546
0.737432
0.741021
0.141536
0.148262
0.741021
0.741513
0.148262
0.149162
0.148262
0.149162
0.0088295
0.00852546
0.141536
0.148262
0.00868013
0.00882949
0.735425
0.72841
0.146079
0.132669
0.72841
0.737432
0.132669
0.141536
0.132669
0.141536
0.00870391
0.00868013
0.146079
0.132669
0.0100839
0.00870391
0.907313
0.798061
0.57494
0.255858
0.798061
0.735425
0.255858
0.146079
0.255858
0.146079
0.0171245
0.0100839
0.888735
0.907313
0.717299
0.57494
0.999911
0.997516
0.968232
0.855687
0.968232
0.855687
0.659127
0.427544
0.997516
0.950253
0.855687
0.682467
0.855687
0.682467
0.427544
0.103278
0.993105
0.994414
0.743825
0.727947
0.994414
0.999911
0.727947
0.659127
0.993254
0.992691
0.743095
0.744475
0.992691
0.993105
0.744475
0.743825
0.993527
0.993542
0.742265
0.741849
0.993542
0.993254
0.741849
0.743095
0.993559
0.993531
0.744033
0.742672
0.993531
0.993527
0.742672
0.742265
0.993696
0.993395
0.741513
0.745523
0.993395
0.993559
0.745523
0.744032
0.993515
0.993576
0.737431
0.741021
0.993576
0.993696
0.741021
0.741513
0.99349
0.994046
0.735425
0.72841
0.994046
0.993515
0.72841
0.737432
0.990543
0.990916
0.907313
0.798061
0.990916
0.99349
0.798061
0.735425
0.985658
0.990543
0.950566
1.0001
0.950566
1.0001
0.888735
0.907313
1.00001
0.995856
0.999911
0.997516
0.995856
0.995182
0.997516
0.950253
-1.18561e-06
-1.21591e-06
-5.56649e-06
9.95367e-07
-1.21591e-06
-7.73101e-07
9.95367e-07
3.08644e-08
-4.28411e-05
-4.22023e-05
3.3305e-05
1.95312e-05
-4.22023e-05
-4.44285e-05
1.95312e-05
2.15486e-05
-4.44285e-05
-5.71127e-05
2.15486e-05
5.70701e-05
-5.71127e-05
-5.7907e-05
5.70701e-05
6.08233e-05
-5.7907e-05
-2.91266e-05
6.08233e-05
2.76921e-06
-2.91266e-05
-3.11162e-05
2.76921e-06
4.09665e-06
-3.11162e-05
-0.000109669
4.09665e-06
0.000147592
-0.000109669
-0.000217958
0.000147592
0.000180957
-0.000217958
-0.000200994
0.000180957
4.9263e-06
-0.000200994
6.67027e-05
4.9263e-06
5.13307e-05
6.67028e-05
2.15261e-05
5.13307e-05
-4.54168e-05
2.15261e-05
-8.39443e-06
-4.54168e-05
-6.43912e-06
-8.39443e-06
1.96151e-06
-6.43912e-06
1.76503e-05
1.96151e-06
2.10875e-06
1.76503e-05
-5.75389e-06
2.10875e-06
-3.0429e-06
-5.75389e-06
-6.57807e-06
-3.0429e-06
-5.56649e-06
-6.57807e-06
6.68669e-06
-5.56649e-06
9.95367e-07
6.68669e-06
4.68539e-06
9.95367e-07
3.08643e-08
4.68539e-06
-3.27907e-06
3.27177e-05
3.3305e-05
-2.11342e-05
-1.48918e-05
3.3305e-05
1.95312e-05
-1.48918e-05
-1.1593e-05
1.95312e-05
2.15486e-05
-1.1593e-05
-1.55243e-05
2.15486e-05
5.70702e-05
-1.55243e-05
-2.5334e-05
5.70702e-05
6.08233e-05
-2.5334e-05
-2.38362e-05
6.08233e-05
2.76921e-06
-2.38362e-05
-2.14752e-06
2.76921e-06
4.09664e-06
-2.14752e-06
-4.32822e-07
4.09664e-06
0.000147592
-4.32824e-07
-4.81935e-05
0.000147592
0.000180957
-4.81935e-05
-8.32287e-05
0.000180957
4.92628e-06
-8.32287e-05
-4.80816e-05
4.92628e-06
5.13307e-05
-4.80816e-05
4.0239e-06
5.13307e-05
-4.54168e-05
4.0239e-06
1.2709e-05
-4.54168e-05
-6.43912e-06
1.2709e-05
-3.47861e-07
-6.43912e-06
1.76503e-05
-3.47862e-07
-2.39714e-06
1.76503e-05
-5.75389e-06
-2.39714e-06
1.53961e-06
-5.75389e-06
-6.57807e-06
1.53961e-06
5.58655e-07
-6.57807e-06
6.68669e-06
5.58655e-07
-2.00164e-06
6.68669e-06
-3.27907e-06
-2.00164e-06
8.50686e-07
-3.27907e-06
1.36875e-06
8.50686e-07
-2.47604e-07
-1.48918e-05
-1.55243e-05
8.4692e-06
8.28957e-06
-1.55243e-05
-2.38362e-05
8.28957e-06
1.36882e-05
-2.38362e-05
-4.32827e-07
1.36882e-05
3.63146e-06
-4.32824e-07
-8.32287e-05
3.63146e-06
4.60306e-05
-8.32287e-05
4.0239e-06
4.60306e-05
-2.90429e-06
4.0239e-06
-3.47861e-07
-2.90429e-06
3.27251e-07
-3.47861e-07
1.53961e-06
3.27251e-07
-8.11182e-07
1.53961e-06
-2.00164e-06
-8.11182e-07
1.05128e-06
-2.00164e-06
8.50686e-07
1.05128e-06
-4.55638e-07
8.50686e-07
-2.47604e-07
-4.55638e-07
1.27616e-07
8.4692e-06
8.28957e-06
-4.95622e-06
-4.75771e-06
8.28957e-06
1.36882e-05
-4.75771e-06
-7.81852e-06
1.36882e-05
3.63146e-06
-7.81852e-06
-1.83828e-06
3.63146e-06
4.60306e-05
-1.83828e-06
-2.61889e-05
4.60306e-05
-2.90429e-06
-2.61889e-05
1.50432e-06
-2.9043e-06
3.27251e-07
1.50432e-06
-1.75532e-07
3.2725e-07
-8.11182e-07
-1.75532e-07
4.43227e-07
-8.11182e-07
1.05128e-06
4.43227e-07
-5.91757e-07
1.05128e-06
-4.55638e-07
-5.91757e-07
2.62223e-07
-4.55638e-07
1.27616e-07
2.62223e-07
-7.01992e-08
-4.95622e-06
-4.75771e-06
3.03133e-06
2.9176e-06
-4.75771e-06
-7.81852e-06
2.9176e-06
4.76882e-06
-7.81852e-06
-1.83828e-06
4.76882e-06
9.33392e-07
-1.83828e-06
-2.61889e-05
9.33391e-07
1.56231e-05
-2.61889e-05
1.50432e-06
1.56231e-05
-6.78218e-07
1.50432e-06
-1.75532e-07
-6.78217e-07
1.24374e-07
-1.75532e-07
4.43227e-07
1.24375e-07
-2.34654e-07
4.43227e-07
-5.91757e-07
-2.34654e-07
3.44124e-07
-5.91757e-07
2.62223e-07
3.44124e-07
-1.63043e-07
2.62223e-07
-7.01992e-08
-1.63043e-07
3.87101e-08
3.03133e-06
2.9176e-06
2.7221e-06
2.59241e-06
2.9176e-06
4.76882e-06
2.59241e-06
4.18544e-06
4.76882e-06
9.33392e-07
4.18544e-06
1.12774e-06
9.33391e-07
1.56231e-05
1.12774e-06
1.37411e-05
1.56231e-05
-6.78218e-07
1.37411e-05
-8.15407e-07
-6.78218e-07
1.24374e-07
-8.15407e-07
1.13131e-07
1.24374e-07
-2.34654e-07
1.13131e-07
-2.32745e-07
-2.34654e-07
3.44124e-07
-2.32745e-07
3.06742e-07
3.44124e-07
-1.63043e-07
3.06742e-07
-1.37959e-07
-1.63042e-07
3.87101e-08
-1.37959e-07
3.53009e-08
-6.99121e-06
7.43314e-06
2.10875e-06
-3.0429e-06
7.43314e-06
-1.18561e-06
-3.0429e-06
-5.56649e-06
-1.26599e-05
1.65158e-05
-8.39443e-06
1.96151e-06
1.65158e-05
-6.99121e-06
1.96151e-06
2.10875e-06
9.76201e-05
-4.75607e-07
6.67027e-05
2.15261e-05
-4.75636e-07
-1.26599e-05
2.15261e-05
-8.39443e-06
-0.000111295
-0.000195507
-0.000217958
-0.000200994
-0.000195507
9.76199e-05
-0.000200994
6.67027e-05
-4.30035e-05
-2.48764e-05
-3.11162e-05
-0.000109669
-2.48765e-05
-0.000111295
-0.000109669
-0.000217958
-2.74302e-05
-3.88991e-05
-5.7907e-05
-2.91266e-05
-3.88991e-05
-4.30035e-05
-2.91266e-05
-3.11162e-05
-3.5786e-05
-2.57902e-05
-4.44285e-05
-5.71127e-05
-2.57902e-05
-2.74303e-05
-5.71127e-05
-5.7907e-05
-2.40981e-05
-3.30878e-05
-4.28411e-05
-4.22023e-05
-3.30878e-05
-3.57861e-05
-4.22023e-05
-4.44285e-05
-8.78539e-07
1.13636e-06
-1.18561e-06
-1.21591e-06
3.28464e-05
3.6072e-05
6.85029e-07
-3.86004e-05
6.85029e-07
-3.86004e-05
-6.99121e-06
7.43314e-06
3.6072e-05
-8.7854e-07
-3.86004e-05
5.56771e-06
-3.86004e-05
5.56771e-06
7.43314e-06
-1.1856e-06
0.000169441
-0.000142574
-5.83234e-05
5.0173e-05
-0.000142574
3.28464e-05
5.0173e-05
6.85027e-07
5.0173e-05
6.85027e-07
1.65158e-05
-6.99121e-06
-5.83235e-05
5.0173e-05
-1.26599e-05
1.65158e-05
-0.00136586
-6.26807e-05
0.000499412
3.498e-05
-6.26806e-05
0.000169441
3.498e-05
-5.83235e-05
3.498e-05
-5.83235e-05
-4.75643e-07
-1.26599e-05
0.000499412
3.498e-05
9.76201e-05
-4.75625e-07
0.00229211
0.00304055
-0.00086027
-0.00110666
0.00304055
-0.00136586
-0.00110666
0.000499412
-0.00110666
0.000499412
-0.000195507
9.762e-05
-0.00086027
-0.00110666
-0.000111295
-0.000195507
0.000577342
0.000902041
-0.000212764
-0.000343354
0.000902041
0.00229211
-0.000343354
-0.00086027
-0.000343354
-0.00086027
-2.48764e-05
-0.000111295
-0.000212764
-0.000343354
-4.30035e-05
-2.48764e-05
0.000607319
0.000559971
-0.000226923
-0.000201684
0.000559972
0.000577342
-0.000201684
-0.000212764
-0.000201684
-0.000212764
-3.88991e-05
-4.30035e-05
-0.000226923
-0.000201684
-2.74302e-05
-3.88991e-05
0.000560193
0.000607319
-0.000209852
-0.000226923
-0.000209852
-0.000226923
-2.57902e-05
-2.74302e-05
-0.000214033
-0.000209852
-3.57861e-05
-2.57902e-05
-0.000200695
-0.000214033
-3.30879e-05
-3.57861e-05
3.22895e-05
-8.87043e-06
-9.96396e-07
4.81383e-06
-9.96395e-07
4.81383e-06
-8.78536e-07
1.13636e-06
0.000173933
-4.27608e-05
-6.64479e-05
2.81742e-05
-4.27608e-05
3.22895e-05
2.81742e-05
-9.96392e-07
2.81742e-05
-9.96394e-07
3.6072e-05
-8.78539e-07
-6.64479e-05
2.81742e-05
3.28465e-05
3.6072e-05
0.000732718
-0.000641807
-0.000351468
0.00032612
-0.000641807
0.000173933
0.00032612
-6.64479e-05
0.00032612
-6.64479e-05
-0.000142574
3.28464e-05
-0.000351468
0.00032612
0.000169441
-0.000142574
-0.00534793
-0.00019983
0.00296383
0.000193904
-0.00019983
0.000732718
0.000193904
-0.000351468
0.000193903
-0.000351468
-6.26807e-05
0.000169441
0.00296383
0.000193904
-0.00136586
-6.26806e-05
0.0126329
0.014426
-0.00463404
-0.00623659
0.014426
-0.00534793
-0.00623659
0.00296383
-0.00623659
0.00296383
0.00304055
-0.00136586
-0.00463404
-0.00623659
0.00229211
0.00304055
-0.00172011
-0.00463404
0.000902041
0.00229211
-0.000954979
-0.00172011
0.000577342
0.000902041
0.000524492
-0.00010728
-0.000315838
0.000136012
-0.00010728
5.54391e-05
0.000136012
-4.55845e-05
0.000136012
-4.55846e-05
-4.27608e-05
3.22895e-05
-0.000315838
0.000136012
0.000173933
-4.27608e-05
0.0054188
-0.00157873
-0.00110285
0.00135516
-0.00157873
0.000524492
0.00135516
-0.000315838
0.00135516
-0.000315838
-0.000641807
0.000173933
-0.00110285
0.00135516
0.000732718
-0.000641807
0.103278
0.0271676
0.0197099
0.00231992
0.0271676
0.0054188
0.00231992
-0.00110285
0.00231992
-0.00110285
-0.00019983
0.000732718
0.0197099
0.00231992
-0.00534793
-0.00019983
0.012763
0.0197099
0.014426
-0.00534793
1.00088
0.999025
1.0004
0.998751
0.999025
0.998959
0.998751
0.999438
1.0004
0.998751
0.999943
1.0011
0.998751
0.999438
1.0011
1.00015
0.999943
1.0011
0.999615
0.998213
1.0011
1.00126
0.998213
0.995192
1.00126
1.00015
0.995192
0.999432
0.999615
0.999471
1.00071
0.999289
0.999471
0.998213
0.999289
1.00515
0.998213
0.995192
1.00515
1.0066
0.995192
0.999432
1.0066
0.996129
5.54391e-05
-2.44708e-05
-4.55846e-05
3.64198e-05
0.000955988
-0.000421151
-0.000357534
0.000214032
0.0150433
-0.000457892
-0.000746462
0.00107317
-0.000457891
0.000955988
0.00107317
-0.000357534
0.00107317
-0.000357534
-0.00010728
5.54391e-05
-0.000746463
0.00107317
0.000524492
-0.00010728
0.325263
0.0590555
0.0347027
0.0128025
0.0590555
0.0150433
0.0128025
-0.000746462
0.0128025
-0.000746462
-0.00157873
0.000524492
0.0347027
0.0128025
0.0054188
-0.00157873
0.950253
0.73228
0.682467
0.24316
0.73228
0.325263
0.24316
0.0347027
0.24316
0.0347027
0.0271676
0.0054188
0.682467
0.24316
0.103278
0.0271676
0.000245755
-9.86768e-05
-0.000692094
0.000349664
0.0024395
-0.000179101
-0.00201035
0.00141967
-0.000179101
0.000245755
0.00141967
-0.000692094
0.00141967
-0.000692094
-0.000421151
0.000226522
-0.00201035
0.00141967
0.000955988
-0.000421151
0.240662
0.0203211
0.0591547
0.0114929
0.0203211
0.0024395
0.0114929
-0.00201035
0.0114929
-0.00201035
-0.000457892
0.000955987
0.0591547
0.0114929
0.0150433
-0.000457891
0.973064
0.802951
0.828834
0.419355
0.802951
0.240662
0.419355
0.0591547
0.419356
0.0591547
0.0590555
0.0150433
0.828834
0.419355
0.325263
0.0590555
0.995182
0.991726
1.00174
1.00015
1.00174
1.00015
0.950253
0.73228
0.991726
0.973064
1.00015
0.828834
1.00015
0.828834
0.73228
0.325263
-4.24562e-05
5.30692e-05
0.000501589
-0.000239403
0.00034785
0.000107982
0.00213802
-0.000975073
0.000107982
-4.24562e-05
-0.000975073
0.000501589
-0.000975073
0.000501589
-9.86768e-05
4.70581e-05
0.00213802
-0.000975073
0.000245755
-9.86768e-05
0.0430264
0.00561144
0.0153638
-0.00262256
0.00561144
0.00034785
-0.00262256
0.00213802
-0.00262256
0.00213802
-0.000179101
0.000245755
0.0153638
-0.00262256
0.0024395
-0.000179101
0.772338
0.261881
0.470598
0.0569858
0.261882
0.0430264
0.0569858
0.0153638
0.0569858
0.0153638
0.0203211
0.0024395
0.470598
0.0569858
0.240662
0.0203211
0.996129
0.971848
0.991484
0.945818
0.991484
0.945818
0.973064
0.802951
0.971848
0.772339
0.945818
0.470598
0.945818
0.470598
0.802951
0.240662
1.00515
1.0066
0.995182
0.991726
1.0066
0.996129
0.991726
0.973064
0.00137546
-0.000682749
-0.000307905
0.000177092
-0.000682749
0.000358551
0.000177092
6.18918e-06
-0.000307905
0.000177092
-4.24562e-05
5.30692e-05
0.00687668
-0.00277972
-8.05037e-05
0.000588704
-0.00277972
0.00137546
0.000588704
-0.000307905
0.000588705
-0.000307905
0.000107982
-4.24562e-05
-8.05038e-05
0.000588705
0.00034785
0.000107982
0.358311
0.0242193
0.180116
0.0188934
0.0242193
0.00687668
0.0188934
-8.05035e-05
0.0188934
-8.05034e-05
0.00561144
0.00034785
0.180116
0.0188934
0.0430264
0.00561144
0.980789
0.910868
0.954535
0.716206
0.910868
0.358311
0.716206
0.180116
0.716206
0.180116
0.261881
0.0430264
0.954535
0.716206
0.772338
0.261881
0.999432
1.00521
0.998082
0.988106
0.998082
0.988106
0.996129
0.971848
1.00521
0.980789
0.988106
0.954535
0.988106
0.954535
0.971848
0.772339
-1.3468e-05
6.90297e-05
0.000253664
4.36357e-05
0.000253664
4.36357e-05
0.000358551
4.7536e-05
-0.00064522
0.000196791
0.000878076
-0.000495132
0.000196791
-1.3468e-05
-0.000495132
0.000253664
-0.000495132
0.000253664
-0.000682749
0.000358551
0.000878075
-0.000495132
0.00137546
-0.000682749
-0.00201503
0.00126522
0.00466691
-0.00179439
0.00126522
-0.000645219
-0.00179439
0.000878076
-0.00179439
0.000878076
-0.00277972
0.00137546
0.00466691
-0.00179439
0.00687668
-0.00277972
0.162797
0.0134384
0.31003
0.0195629
0.0134384
-0.00201503
0.0195629
0.00466691
0.0195629
0.00466691
0.0242193
0.00687668
0.31003
0.0195629
0.358311
0.0242193
0.987033
0.796408
0.986314
0.90001
0.796408
0.162797
0.90001
0.31003
0.90001
0.31003
0.910868
0.358311
0.986314
0.90001
0.980789
0.910868
1.00015
0.997421
1.00008
1.00514
1.00008
1.00514
0.999432
1.00521
0.997421
0.987033
1.00514
0.986314
1.00514
0.986314
1.00521
0.980789
-0.00138589
0.00078265
-0.00131879
0.000639038
-0.00131879
0.000639038
-0.000645219
0.000196791
0.00078265
-0.000328659
0.000639038
-0.000245865
0.000639038
-0.000245865
0.000196791
-1.3468e-05
-0.00516205
0.00279956
-0.00486564
0.00262495
0.00279956
-0.00138589
0.00262495
-0.00131879
0.00262495
-0.00131879
0.00126522
-0.000645219
-0.00486565
0.00262495
-0.00201503
0.00126522
0.0901219
0.0137225
0.0999857
0.0136426
0.0137225
-0.00516205
0.0136426
-0.00486564
0.0136426
-0.00486564
0.0134384
-0.00201503
0.0999857
0.0136426
0.162797
0.0134384
0.982633
0.690035
0.984034
0.709901
0.690035
0.0901219
0.709901
0.0999857
0.709901
0.0999857
0.796408
0.162797
0.984034
0.709901
0.987033
0.796408
0.999438
0.997197
0.999839
0.997102
0.999839
0.997102
1.00015
0.997421
0.997197
0.982633
0.997102
0.984034
0.997102
0.984034
0.997421
0.987033
-0.00123645
0.00061668
-0.00138778
0.000749105
-0.00138778
0.000749105
-0.00138589
0.00078265
0.000749105
-0.000194157
0.00078265
-0.000328659
-0.00499522
0.0026375
-0.00536781
0.00286283
0.0026375
-0.00123645
0.00286283
-0.00138778
0.00286283
-0.00138778
0.00279956
-0.00138589
-0.00536781
0.00286283
-0.00516205
0.00279956
0.0429502
0.0118769
0.0748
0.0135832
0.0118769
-0.00499522
0.0135832
-0.00536781
0.0135832
-0.00536781
0.0137225
-0.00516205
0.0748
0.0135832
0.0901219
0.0137225
0.959386
0.51356
0.977817
0.642645
0.51356
0.0429502
0.642645
0.0748
0.642645
0.0748
0.690035
0.0901219
0.977817
0.642645
0.982633
0.690035
0.998959
0.992031
0.99917
0.994376
0.99917
0.994376
0.999438
0.997197
0.992031
0.959386
0.994376
0.977817
0.994376
0.977817
0.997197
0.982633
-0.00325697
0.00169261
-0.00360569
0.00188879
-0.00360569
0.00188879
-0.00499522
0.0026375
0.0214336
0.007564
0.0238272
0.00858813
0.007564
-0.00325697
0.00858813
-0.00360569
0.00858813
-0.00360569
0.0118769
-0.00499522
0.0238272
0.00858813
0.0429502
0.0118769
0.927478
0.372285
0.933536
0.39275
0.372285
0.0214336
0.39275
0.0238272
0.39275
0.0238272
0.51356
0.0429502
0.933536
0.39275
0.959386
0.51356
0.989716
0.927478
0.990019
0.933536
0.990019
0.933536
0.992031
0.959386
0.0114431
-0.00466317
0.007564