# vtk DataFile Version 2.0
Hex test
ASCII
DATASET UNSTRUCTURED_GRID
POINTS 8792 float
10 48 0
10 50 0
12 48 0
12 50 0
10 50 0
10 52 0
12 50 0
12 52 0
10 52 0
10 54 0
12 52 0
12 54 0
10 54 0
10 56.1667 0
12 54 0
12 56.1667 0
10 56.1667 0
10 60 0
12 56.1667 0
12 60 0
12 48 0
12 50 0
14 48 0
14 50 0
12 50 0
12 52 0
14 50 0
14 52 0
12 52 0
12 54 0
14 52 0
14 54 0
12 54 0
12 56.1667 0
14 54 0
14 56.1667 0
12 56.1667 0
12 60 0
14 56.1667 0
14 60 0
14 48 0
14 50 0
16 48 0
16 50 0
14 50 0
14 52 0
16 50 0
16 52 0
14 52 0
14 54 0
16 52 0
16 54 0
14 54 0
14 56.1667 0
16 54 0
16 56.1667 0
14 56.1667 0
14 60 0
16 56.1667 0
16 60 0
16 48 0
16 50 0
18 48 0
18 50 0
16 50 0
16 52 0
18 50 0
18 52 0
16 52 0
16 54 0
18 52 0
18 54 0
16 54 0
16 56.1667 0
18 54 0
18 56.1667 0
16 56.1667 0
16 60 0
18 56.1667 0
18 60 0
18 48 0
18 50 0
20 48 0
20 50 0
18 50 0
18 52 0
20 50 0
20 52 0
18 52 0
18 54 0
20 52 0
20 54 0
18 54 0
18 56.1667 0
20 54 0
20 56.1667 0
18 56.1667 0
18 60 0
20 56.1667 0
20 60 0
20 48 0
20 50 0
22 48 0
22 50 0
20 50 0
20 52 0
22 50 0
22 52 0
20 52 0
20 54 0
22 52 0
22 54 0
20 54 0
20 56.1667 0
22 54 0
22 56.1667 0
20 56.1667 0
20 60 0
22 56.1667 0
22 60 0
22 48 0
22 50 0
24 48 0
24 50 0
22 50 0
22 52 0
24 50 0
24 52 0
22 52 0
22 54 0
24 52 0
24 54 0
22 54 0
22 56.1667 0
24 54 0
24 56.1667 0
22 56.1667 0
22 60 0
24 56.1667 0
24 60 0
24 46 0
24 47 0
26 46 0
26 47 0
24 47 0
24 48 0
26 47 0
26 48 0
28 43 0
28 44 0
29 43 0
29 44 0
28 41 0
28 42 0
29 41 0
29 42 0
26 44 0
26 45 0
27 44 0
27 45 0
27 44 0
27 45 0
28 44 0
28 45 0
26 42 0
26 43 0
27 42 0
27 43 0
26 43 0
26 44 0
27 43 0
27 44 0
27 43 0
27 44 0
28 43 0
28 44 0
27 42 0
27 43 0
28 42 0
28 43 0
26 41 0
26 42 0
27 41 0
27 42 0
27 41 0
27 42 0
28 41 0
28 42 0
24 44 0
24 45 0
25 44 0
25 45 0
25 44 0
25 45 0
26 44 0
26 45 0
24 45 0
24 46 0
25 45 0
25 46 0
25 45 0
25 46 0
26 45 0
26 46 0
24 42 0
24 43 0
25 42 0
25 43 0
24 43 0
24 44 0
25 43 0
25 44 0
25 43 0
25 44 0
26 43 0
26 44 0
25 42 0
25 43 0
26 42 0
26 43 0
24 40 0
24 41 0
25 40 0
25 41 0
24 41 0
24 42 0
25 41 0
25 42 0
25 41 0
25 42 0
26 41 0
26 42 0
25 40 0
25 41 0
26 40 0
26 41 0
24 39 0
24 40 0
25 39 0
25 40 0
22 46 0
22 47 0
24 46 0
24 47 0
22 47 0
22 48 0
24 47 0
24 48 0
22 44 0
22 45 0
23 44 0
23 45 0
23 44 0
23 45 0
24 44 0
24 45 0
22 45 0
22 46 0
23 45 0
23 46 0
23 45 0
23 46 0
24 45 0
24 46 0
22 42 0
22 43 0
23 42 0
23 43 0
22 43 0
22 44 0
23 43 0
23 44 0
23 43 0
23 44 0
24 43 0
24 44 0
23 42 0
23 43 0
24 42 0
24 43 0
22 40 0
22 41 0
23 40 0
23 41 0
22 41 0
22 42 0
23 41 0
23 42 0
23 41 0
23 42 0
24 41 0
24 42 0
23 40 0
23 41 0
24 40 0
24 41 0
22 39 0
22 40 0
23 39 0
23 40 0
23 39 0
23 40 0
24 39 0
24 40 0
20 46 0
20 47 0
21 46 0
21 47 0
21 46 0
21 47 0
22 46 0
22 47 0
20 47 0
20 48 0
21 47 0
21 48 0
21 47 0
21 48 0
22 47 0
22 48 0
20 44 0
20 45 0
21 44 0
21 45 0
20 45 0
20 46 0
21 45 0
21 46 0
21 45 0
21 46 0
22 45 0
22 46 0
21 44 0
21 45 0
22 44 0
22 45 0
20 42 0
20 43 0
21 42 0
21 43 0
20 43 0
20 44 0
21 43 0
21 44 0
21 43 0
21 44 0
22 43 0
22 44 0
21 42 0
21 43 0
22 42 0
22 43 0
20 40 0
20 41 0
21 40 0
21 41 0
20 41 0
20 42 0
21 41 0
21 42 0
21 41 0
21 42 0
22 41 0
22 42 0
21 40 0
21 41 0
22 40 0
22 41 0
18 46 0
18 47 0
19 46 0
19 47 0
19 46 0
19 47 0
20 46 0
20 47 0
18 47 0
18 48 0
19 47 0
19 48 0
19 47 0
19 48 0
20 47 0
20 48 0
18 44 0
18 45 0
19 44 0
19 45 0
18 45 0
18 46 0
19 45 0
19 46 0
19 45 0
19 46 0
20 45 0
20 46 0
19 44 0
19 45 0
20 44 0
20 45 0
18 42 0
18 43 0
19 42 0
19 43 0
18 43 0
18 44 0
19 43 0
19 44 0
19 43 0
19 44 0
20 43 0
20 44 0
19 42 0
19 43 0
20 42 0
20 43 0
18 41 0
18 42 0
19 41 0
19 42 0
19 41 0
19 42 0
20 41 0
20 42 0
19 40 0
19 41 0
20 40 0
20 41 0
16 46 0
16 47 0
17 46 0
17 47 0
17 46 0
17 47 0
18 46 0
18 47 0
16 47 0
16 48 0
17 47 0
17 48 0
17 47 0
17 48 0
18 47 0
18 48 0
16 44 0
16 45 0
17 44 0
17 45 0
16 45 0
16 46 0
17 45 0
17 46 0
17 45 0
17 46 0
18 45 0
18 46 0
17 44 0
17 45 0
18 44 0
18 45 0
16 42 0
16 43 0
17 42 0
17 43 0
16 43 0
16 44 0
17 43 0
17 44 0
17 43 0
17 44 0
18 43 0
18 44 0
17 42 0
17 43 0
18 42 0
18 43 0
16 41 0
16 42 0
17 41 0
17 42 0
17 41 0
17 42 0
18 41 0
18 42 0
14 46 0
14 47 0
15 46 0
15 47 0
15 46 0
15 47 0
16 46 0
16 47 0
14 47 0
14 48 0
15 47 0
15 48 0
15 47 0
15 48 0
16 47 0
16 48 0
14 44 0
14 45 0
15 44 0
15 45 0
14 45 0
14 46 0
15 45 0
15 46 0
15 45 0
15 46 0
16 45 0
16 46 0
15 44 0
15 45 0
16 44 0
16 45 0
14 42 0
14 43 0
15 42 0
15 43 0
14 43 0
14 44 0
15 43 0
15 44 0
15 43 0
15 44 0
16 43 0
16 44 0
15 42 0
15 43 0
16 42 0
16 43 0
15 41 0
15 42 0
16 41 0
16 42 0
12 46 0
12 47 0
13 46 0
13 47 0
13 46 0
13 47 0
14 46 0
14 47 0
12 47 0
12 48 0
13 47 0
13 48 0
13 47 0
13 48 0
14 47 0
14 48 0
12 45 0
12 46 0
13 45 0
13 46 0
13 45 0
13 46 0
14 45 0
14 46 0
13 44 0
13 45 0
14 44 0
14 45 0
14 24 0
14 25 0
16 24 0
16 25 0
14 25 0
14 26 0
16 25 0
16 26 0
14 26 0
14 27 0
16 26 0
16 27 0
14 27 0
14 28 0
16 27 0
16 28 0
14 28 0
14 29 0
16 28 0
16 29 0
14 29 0
14 30 0
16 29 0
16 30 0
14 30 0
14 31 0
16 30 0
16 31 0
14 31 0
14 32 0
16 31 0
16 32 0
16 24 0
16 25 0
18 24 0
18 25 0
16 25 0
16 26 0
18 25 0
18 26 0
16 26 0
16 27 0
18 26 0
18 27 0
16 27 0
16 28 0
18 27 0
18 28 0
16 28 0
16 29 0
18 28 0
18 29 0
16 29 0
16 30 0
18 29 0
18 30 0
16 30 0
16 31 0
18 30 0
18 31 0
16 31 0
16 32 0
18 31 0
18 32 0
16 32 0
16 33 0
18 32 0
18 33 0
16 33 0
16 34 0
18 33 0
18 34 0
18 24 0
18 26 0
20 24 0
20 26 0
18 26 0
18 28 0
20 26 0
20 28 0
18 28 0
18 30 0
20 28 0
20 30 0
18 30 0
18 32 0
20 30 0
20 32 0
18 32 0
18 33 0
20 32 0
20 33 0
18 33 0
18 34 0
20 33 0
20 34 0
18 34 0
18 35 0
20 34 0
20 35 0
18 35 0
18 36 0
20 35 0
20 36 0
20 24 0
20 26 0
22 24 0
22 26 0
20 26 0
20 28 0
22 26 0
22 28 0
20 28 0
20 30 0
22 28 0
22 30 0
20 30 0
20 32 0
22 30 0
22 32 0
20 32 0
20 34 0
22 32 0
22 34 0
20 34 0
20 35 0
22 34 0
22 35 0
20 35 0
20 36 0
22 35 0
22 36 0
22 22 0
22 24 0
24 22 0
24 24 0
22 24 0
22 26 0
24 24 0
24 26 0
22 26 0
22 28 0
24 26 0
24 28 0
22 28 0
22 30 0
24 28 0
24 30 0
22 30 0
22 32 0
24 30 0
24 32 0
22 32 0
22 34 0
24 32 0
24 34 0
22 34 0
22 36 0
24 34 0
24 36 0
22 38 0
22 39 0
23 38 0
23 39 0
23 38 0
23 39 0
24 38 0
24 39 0
22 36 0
22 37 0
23 36 0
23 37 0
23 36 0
23 37 0
24 36 0
24 37 0
22 37 0
22 38 0
23 37 0
23 38 0
23 37 0
23 38 0
24 37 0
24 38 0
20 38 0
20 39 0
21 38 0
21 39 0
20 39 0
20 40 0
21 39 0
21 40 0
21 39 0
21 40 0
22 39 0
22 40 0
21 38 0
21 39 0
22 38 0
22 39 0
20 36 0
20 37 0
21 36 0
21 37 0
21 36 0
21 37 0
22 36 0
22 37 0
20 37 0
20 38 0
21 37 0
21 38 0
21 37 0
21 38 0
22 37 0
22 38 0
18 40 0
18 41 0
19 40 0
19 41 0
18 38 0
18 39 0
19 38 0
19 39 0
18 39 0
18 40 0
19 39 0
19 40 0
19 39 0
19 40 0
20 39 0
20 40 0
19 38 0
19 39 0
20 38 0
20 39 0
18 36 0
18 37 0
19 36 0
19 37 0
19 36 0
19 37 0
20 36 0
20 37 0
18 37 0
18 38 0
19 37 0
19 38 0
19 37 0
19 38 0
20 37 0
20 38 0
16 40 0
16 41 0
17 40 0
17 41 0
17 40 0
17 41 0
18 40 0
18 41 0
16 38 0
16 39 0
17 38 0
17 39 0
16 39 0
16 40 0
17 39 0
17 40 0
17 39 0
17 40 0
18 39 0
18 40 0
17 38 0
17 39 0
18 38 0
18 39 0
16 36 0
16 37 0
17 36 0
17 37 0
17 36 0
17 37 0
18 36 0
18 37 0
16 37 0
16 38 0
17 37 0
17 38 0
17 37 0
17 38 0
18 37 0
18 38 0
16 34 0
16 35 0
18 34 0
18 35 0
16 35 0
16 36 0
18 35 0
18 36 0
14 40 0
14 41 0
15 40 0
15 41 0
14 41 0
14 42 0
15 41 0
15 42 0
15 40 0
15 41 0
16 40 0
16 41 0
14 38 0
14 39 0
15 38 0
15 39 0
14 39 0
14 40 0
15 39 0
15 40 0
15 39 0
15 40 0
16 39 0
16 40 0
15 38 0
15 39 0
16 38 0
16 39 0
14 36 0
14 37 0
15 36 0
15 37 0
14 37 0
14 38 0
15 37 0
15 38 0
15 37 0
15 38 0
16 37 0
16 38 0
15 36 0
15 37 0
16 36 0
16 37 0
14 34 0
14 35 0
15 34 0
15 35 0
15 34 0
15 35 0
16 34 0
16 35 0
14 35 0
14 36 0
15 35 0
15 36 0
15 35 0
15 36 0
16 35 0
16 36 0
14 32 0
14 33 0
16 32 0
16 33 0
14 33 0
14 34 0
16 33 0
16 34 0
13 40 0
13 41 0
14 40 0
14 41 0
12 38 0
12 39 0
13 38 0
13 39 0
12 39 0
12 40 0
13 39 0
13 40 0
13 39 0
13 40 0
14 39 0
14 40 0
13 38 0
13 39 0
14 38 0
14 39 0
12 36 0
12 37 0
13 36 0
13 37 0
12 37 0
12 38 0
13 37 0
13 38 0
13 37 0
13 38 0
14 37 0
14 38 0
13 36 0
13 37 0
14 36 0
14 37 0
12 34 0
12 35 0
13 34 0
13 35 0
12 35 0
12 36 0
13 35 0
13 36 0
13 35 0
13 36 0
14 35 0
14 36 0
13 34 0
13 35 0
14 34 0
14 35 0
12 32 0
12 33 0
13 32 0
13 33 0
13 32 0
13 33 0
14 32 0
14 33 0
12 33 0
12 34 0
13 33 0
13 34 0
13 33 0
13 34 0
14 33 0
14 34 0
12 30 0
12 31 0
14 30 0
14 31 0
12 31 0
12 32 0
14 31 0
14 32 0
12 28 0
12 29 0
14 28 0
14 29 0
12 29 0
12 30 0
14 29 0
14 30 0
12 26 0
12 27 0
14 26 0
14 27 0
12 27 0
12 28 0
14 27 0
14 28 0
12 24 0
12 25 0
14 24 0
14 25 0
12 25 0
12 26 0
14 25 0
14 26 0
11 38 0
11 39 0
12 38 0
12 39 0
10 36 0
10 37 0
11 36 0
11 37 0
10 37 0
10 38 0
11 37 0
11 38 0
11 37 0
11 38 0
12 37 0
12 38 0
11 36 0
11 37 0
12 36 0
12 37 0
10 34 0
10 35 0
11 34 0
11 35 0
10 35 0
10 36 0
11 35 0
11 36 0
11 35 0
11 36 0
12 35 0
12 36 0
11 34 0
11 35 0
12 34 0
12 35 0
10 32 0
10 33 0
11 32 0
11 33 0
10 33 0
10 34 0
11 33 0
11 34 0
11 33 0
11 34 0
12 33 0
12 34 0
11 32 0
11 33 0
12 32 0
12 33 0
10 30 0
10 31 0
11 30 0
11 31 0
10 31 0
10 32 0
11 31 0
11 32 0
11 31 0
11 32 0
12 31 0
12 32 0
11 30 0
11 31 0
12 30 0
12 31 0
11 29 0
11 30 0
12 29 0
12 30 0
11 28 0
11 29 0
12 28 0
12 29 0
11 27 0
11 28 0
12 27 0
12 28 0
11 26 0
11 27 0
12 26 0
12 27 0
10 25 0
10 26 0
11 25 0
11 26 0
11 25 0
11 26 0
12 25 0
12 26 0
11 24 0
11 25 0
12 24 0
12 25 0
-12 26 0
-12 28 0
-8.16667 26 0
-8.16667 28 0
-12 28 0
-12 30 0
-8.16667 28 0
-8.16667 30 0
-12 30 0
-12 32 0
-8.16667 30 0
-8.16667 32 0
-12 32 0
-12 34 0
-8.16667 32 0
-8.16667 34 0
-12 34 0
-12 36 0
-8.16667 34 0
-8.16667 36 0
-12 36 0
-12 38 0
-8.16667 36 0
-8.16667 38 0
-12 38 0
-12 40 0
-8.16667 38 0
-8.16667 40 0
-12 40 0
-12 42 0
-8.16667 40 0
-8.16667 42 0
-8.16667 26 0
-8.16667 28 0
-6 26 0
-6 28 0
-8.16667 28 0
-8.16667 30 0
-6 28 0
-6 30 0
-8.16667 30 0
-8.16667 32 0
-6 30 0
-6 32 0
-8.16667 32 0
-8.16667 34 0
-6 32 0
-6 34 0
-8.16667 34 0
-8.16667 36 0
-6 34 0
-6 36 0
-8.16667 36 0
-8.16667 38 0
-6 36 0
-6 38 0
-8.16667 38 0
-8.16667 40 0
-6 38 0
-6 40 0
-8.16667 40 0
-8.16667 42 0
-6 40 0
-6 42 0
-6 26 0
-6 28 0
-4 26 0
[...]
POINT_DATA 8792
SCALARS phi float 1
LOOKUP_TABLE default
2.29291e-05
-2.79445e-06
-8.41876e-05
-1.42238e-05
-2.79445e-06
1.05939e-06
-1.42238e-05
3.73678e-06
1.05939e-06
-7.9952e-07
3.73678e-06
-8.55353e-07
-7.9952e-07
6.95769e-07
-8.55353e-07
-1.42632e-06
6.95768e-07
4.25961e-07
-1.42632e-06
-2.98004e-07
-8.41876e-05
-1.42238e-05
0.000109668
2.67171e-05
-1.42238e-05
3.73678e-06
2.67171e-05
-7.65676e-06
3.73678e-06
-8.55353e-07
-7.65676e-06
1.63641e-06
-8.55352e-07
-1.42632e-06
1.63641e-06
3.44694e-06
-1.42632e-06
-2.98004e-07
3.44694e-06
5.4271e-07
0.000109668
2.67171e-05
-0.000183315
-5.34998e-05
2.67171e-05
-7.65676e-06
-5.34998e-05
2.46699e-05
-7.65676e-06
1.63641e-06
2.46699e-05
-9.39737e-06
1.63641e-06
3.44694e-06
-9.39737e-06
-1.27278e-06
3.44694e-06
5.4271e-07
-1.27278e-06
2.04344e-06
-0.000183315
-5.34998e-05
0.000899894
2.38588e-05
-5.34998e-05
2.46699e-05
2.38588e-05
3.48723e-05
2.46699e-05
-9.39737e-06
3.48723e-05
-5.29947e-06
-9.39737e-06
-1.27278e-06
-5.29947e-06
-1.32002e-05
-1.27278e-06
2.04344e-06
-1.32002e-05
-1.79697e-07
0.000899894
2.38588e-05
0.00115772
8.03003e-05
2.38588e-05
3.48723e-05
8.03003e-05
2.57416e-05
3.48723e-05
-5.29947e-06
2.57416e-05
-1.03072e-05
-5.29947e-06
-1.32002e-05
-1.03072e-05
2.04331e-06
-1.32002e-05
-1.79697e-07
2.04331e-06
2.86781e-06
0.00115772
8.03003e-05
9.62786e-05
-1.72533e-06
8.03003e-05
2.57416e-05
-1.72533e-06
6.86875e-06
2.57416e-05
-1.03072e-05
6.86875e-06
2.63351e-06
-1.03072e-05
2.04331e-06
2.63351e-06
-9.30024e-06
2.04331e-06
2.86781e-06
-9.30024e-06
-4.13501e-06
9.62786e-05
-1.72533e-06
0.000740503
3.82565e-05
-1.72533e-06
6.86875e-06
3.82565e-05
3.15605e-05
6.86875e-06
2.63352e-06
3.15605e-05
-1.05234e-05
2.63351e-06
-9.30024e-06
-1.05234e-05
-2.20808e-06
-9.30024e-06
-4.13501e-06
-2.20808e-06
1.5349e-06
0.000869653
0.000788581
0.0023232
0.00225099
0.000788581
0.000740503
0.00225099
0.00132111
0.00471179
-0.00216638
-0.00802306
0.00224422
0.0137809
-0.00825331
0.01943
0.0153413
-0.00140884
0.00196021
-0.00147478
0.00284323
-0.00147478
0.00284323
-0.00216638
-0.000783631
-0.00751423
0.00357448
-0.00661901
0.0031224
0.00357448
-0.00140884
0.0031224
-0.00147478
0.0031224
-0.00147478
0.00471179
-0.00216638
-0.00661901
0.0031224
-0.00825331
0.00471179
0.0152936
-0.00751423
0.0166122
-0.00661901
0.0166122
-0.00661901
0.0137809
-0.00825331
-0.00143068
0.00130353
-0.00135398
0.00162483
-0.00135398
0.00162483
-0.00140884
0.00196021
0.00130353
0.000869653
0.00162483
0.00182498
0.00162483
0.00182498
0.00196021
0.0023232
-0.00620415
0.00307107
-0.00670542
0.00315445
0.00307107
-0.00143068
0.00315445
-0.00135398
0.00315445
-0.00135398
0.00357448
-0.00140884
-0.00670542
0.00315445
-0.00751423
0.00357448
0.0351888
0.0127214
0.0722338
0.0154176
0.0127214
-0.00620415
0.0154176
-0.00670542
0.0154176
-0.00670542
0.0152936
-0.00751423
0.0722338
0.0154176
0.0752137
0.0152936
0.515603
0.0351888
0.656189
0.0722338
0.000247012
8.35893e-05
0.000869653
0.000788581
8.35893e-05
9.62787e-05
0.000788581
0.000740503
-0.000716157
0.000829129
-0.00102272
0.000470849
-0.00102272
0.000470849
-0.00143068
0.00130353
0.000829129
0.000247012
0.000470849
-8.46959e-06
0.000470849
-8.46959e-06
0.00130353
0.000869653
-0.00382004
0.00186987
-0.00394237
0.00197949
0.00186986
-0.000716157
0.00197949
-0.00102272
0.00197949
-0.00102272
0.00307107
-0.00143068
-0.00394237
0.00197949
-0.00620415
0.00307107
0.0138275
0.00720782
0.0229781
0.00898183
0.00720782
-0.00382004
0.00898183
-0.00394237
0.00898183
-0.00394237
0.0127214
-0.00620415
0.0229781
0.00898182
0.0351888
0.0127214
0.368291
0.0138275
0.393911
0.0229781
0.393911
0.0229781
0.515603
0.0351888
0.00250261
0.00185477
0.00187753
0.000959888
0.00187753
0.000959888
0.000247012
8.35893e-05
0.00185477
0.00115772
0.000959888
0.000570458
0.000959888
0.000570458
8.35893e-05
9.62786e-05
-0.000958558
0.00284041
-0.000599622
0.00346264
0.00284041
0.00250261
0.00346264
0.00187753
0.00346264
0.00187753
0.000829129
0.000247012
-0.000599622
0.00346264
-0.000716157
0.000829129
-0.00674305
0.00310148
-0.00456031
0.0023643
0.00310148
-0.000958558
0.0023643
-0.000599622
0.0023643
-0.000599622
0.00186987
-0.000716157
-0.00456031
0.0023643
-0.00382004
0.00186987
0.0843386
0.0145905
0.0410196
0.0114336
0.0145905
-0.00674305
0.0114336
-0.00456031
0.0114336
-0.00456031
0.00720782
-0.00382004
0.0410196
0.0114336
0.0138275
0.00720782
0.00204766
0.00164926
0.00280879
0.00235758
0.00280879
0.00235758
0.00250262
0.00185477
0.00164926
0.000899894
0.00235758
0.0012674
0.00235758
0.0012674
0.00185477
0.00115772
0.00116375
-0.000576977
0.000966809
-0.00018161
-0.000576977
0.00204766
-0.000181611
0.00280879
-0.000181611
0.00280879
0.00284041
0.00250261
0.000966809
-0.000181611
-0.000958559
0.00284041
0.00820018
-0.00244201
0.00401302
-0.00212359
-0.00244201
0.00116375
-0.00212359
0.000966809
-0.00212359
0.000966809
0.00310148
-0.000958558
0.00401302
-0.00212359
-0.00674305
0.00310148
0.0723493
0.00820017
0.02976
0.00401302
0.02976
0.00401302
0.0145905
-0.00674305
0.329213
0.02976
0.0843386
0.0145905
-0.000678012
-0.000655447
-0.000223471
5.81618e-05
-0.000223471
5.81618e-05
0.00204766
0.00164926
-0.000655448
-0.000183315
5.81618e-05
0.000264714
5.81618e-05
0.000264714
0.00164926
0.000899894
0.000926807
-0.000846212
0.00110155
-0.00037069
-0.000846212
-0.000678012
-0.00037069
-0.000223471
-0.00037069
-0.000223471
-0.000576977
0.00204766
0.00110155
-0.00037069
0.00116375
-0.000576977
0.00598389
-0.00202396
0.00862275
-0.00257512
-0.00202396
0.000926807
-0.00257512
0.00110155
-0.00257512
0.00110155
-0.00244201
0.00116375
0.00862275
-0.00257512
0.00820018
-0.00244201
0.033702
0.00598389
0.0702525
0.00862275
0.0702525
0.00862275
0.0723493
0.00820017
0.000740035
0.000403226
0.000235885
-0.000212179
0.000235885
-0.000212179
-0.000678012
-0.000655447
0.000403226
0.000109668
-0.000212179
-0.000107664
-0.000212179
-0.000107664
-0.000655447
-0.000183315
1.07587e-05
0.000370956
-0.000419655
-9.92927e-05
0.000370956
0.000740035
-9.92927e-05
0.000235885
-9.92927e-05
0.000235885
-0.000846212
-0.000678012
-0.000419655
-9.92928e-05
0.000926807
-0.000846212
0.000650982
-0.00039149
-0.000875748
0.00111548
-0.00039149
1.07587e-05
0.00111548
-0.000419655
0.00111548
-0.000419655
-0.00202396
0.000926807
-0.000875748
0.00111548
0.00598389
-0.00202396
0.0135049
-0.000875748
0.033702
0.00598389
-5.07723e-05
-0.000169252
0.000599778
0.00028335
0.000599778
0.00028335
0.000740035
0.000403226
-0.000169252
-8.41876e-05
0.00028335
5.61724e-05
0.00028335
5.61724e-05
0.000403226
0.000109668
-0.000133029
-5.07723e-05
0.000164097
0.000599778
0.000164097
0.000599778
0.000370956
0.000740035
7.42085e-05
0.000164097
1.07587e-05
0.000370956
0.998351
0.998105
1.00041
1.00083
0.998105
0.998132
1.00083
1.00099
0.998132
0.998687
1.00099
0.999908
0.998687
0.999681
0.999908
1.00001
0.999681
0.999297
1.00001
1.00113
0.999297
0.998741
1.00113
1.00197
0.998741
0.997525
1.00197
1.00142
0.997525
0.99365
1.00142
1.00485
1.00041
1.00084
0.999516
0.999642
1.00084
1.00099
0.999642
0.999651
1.00099
0.999908
0.999651
0.999484
0.999908
1.00001
0.999484
0.999656
1.00001
1.00113
0.999656
1.00043
1.00113
1.00197
1.00043
1.00044
1.00197
1.00142
1.00044
0.99892
1.00142
1.00485
0.99892
0.998925
1.00485
1.00273
0.998925
1.00106
1.00273
0.998382
1.00106
0.999542
0.999516
0.999651
1.00022
1.00017
0.999651
0.999656
1.00017
1.00008
0.999656
1.00044
1.00008
0.999895
1.00044
0.998925
0.999895
1.00101
0.998925
1.00106
1.00101
1.00098
1.00106
0.999542
1.00098
1.00109
0.999542
1.00333
1.00109
1.00179
1.00333
0.99706
1.00179
1.00085
1.00022
1.00017
1.00004
0.999825
1.00017
1.00008
0.999825
1.00039
1.00008
0.999895
1.00039
0.99959
0.999895
1.00101
0.99959
1.00057
1.00101
1.00109
1.00057
0.997809
1.00109
1.00179
0.997809
1.00675
1.00179
1.00085
1.00675
0.997917
1.00001
1.00004
0.99984
0.999905
1.00004
0.999825
0.999905
0.999707
0.999825
1.00039
0.999707
1.00006
1.00039
0.99959
1.00006
0.999053
0.99959
1.00057
0.999053
1.00078
1.00057
0.997809
1.00078
0.998807
0.997809
0.997917
0.998807
0.9996
0.932355
0.368291
0.936776
0.393911
0.936776
0.393911
0.961517
0.515603
0.997917
0.983654
0.998593
0.987051
0.998593
0.987051
0.9996
0.994059
0.983653
0.932355
0.987051
0.936776
0.987051
0.936776
0.994059
0.961517
0.98021
0.684765
0.946267
0.466034
0.684765
0.0843386
0.466034
0.0410196
0.466034
0.0410196
0.368291
0.0138275
0.946267
0.466034
0.932355
0.368291
1.00085
1.00124
0.999366
0.993805
0.999366
0.993805
0.997917
0.983653
1.00124
0.98021
0.993805
0.946267
0.993805
0.946267
0.983653
0.932355
0.429528
0.0723493
0.329213
0.02976
0.983698
0.865482
0.983684
0.885867
0.865482
0.429528
0.885867
0.329213
0.885867
0.329213
0.684765
0.0843386
0.983684
0.885867
0.98021
0.684765
0.99706
0.996561
0.999971
0.99081
0.999971
0.99081
1.00085
1.00124
0.996561
0.983698
0.99081
0.983684
0.99081
0.983684
1.00124
0.98021
0.234676
0.033702
0.371399
0.0702525
0.371399
0.0702525
0.429528
0.0723493
0.695934
0.517146
0.923937
0.721399
0.517146
0.234676
0.721399
0.371399
0.721399
0.371399
0.865482
0.429528
0.923937
0.721399
0.983698
0.865482
0.987533
0.914508
0.992915
1.00474
0.992915
1.00474
0.99706
0.996561
0.914507
0.695934
1.00474
0.923937
1.00474
0.923937
0.996561
0.983698
0.998382
0.99588
0.999542
1.00333
0.99588
0.987533
1.00333
0.99706
0.0158769
0.000778321
0.0816439
0.0135049
0.000778321
0.000650981
0.0135049
-0.000875748
0.0816439
0.0135049
0.234676
0.033702
0.366799
0.102144
0.452305
0.303157
0.102144
0.0158769
0.303157
0.0816439
0.303157
0.0816439
0.517146
0.234676
0.452305
0.303158
0.695935
0.517146
0.931873
0.644419
0.978795
0.734678
0.644419
0.366799
0.734678
0.452305
0.734678
0.452305
0.914508
0.695935
0.978795
0.734678
0.987533
0.914508
1.00042
0.990467
1.01062
0.991867
1.01062
0.991867
0.998382
0.99588
0.990467
0.931873
0.991867
0.978794
0.991867
0.978794
0.99588
0.987533
0.99365
0.984423
1.00485
1.00273
0.984423
1.00042
1.00273
0.998382
0.00536632
-0.000894554
0.0158769
0.000778321
0.0295721
0.0029979
0.189031
0.0311531
0.0029979
-0.000469412
0.0311531
0.00536632
0.0311531
0.00536632
0.102144
0.0158769
0.189031
0.0311531
0.366799
0.102144
0.52414
0.198626
0.752711
0.471277
0.198626
0.0295721
0.471277
0.189031
0.471277
0.189031
0.644419
0.366799
0.752711
0.471277
0.931873
0.644419
0.924213
0.794915
0.965488
0.955774
0.794915
0.52414
0.955774
0.752712
0.955774
0.752711
0.990467
0.931873
0.965488
0.955774
1.00042
0.990467
0.992387
0.974891
0.997305
1.00536
0.997305
1.00536
0.99365
0.984423
0.974891
0.924213
1.00536
0.965488
1.00536
0.965488
0.984423
1.00042
1.00191
0.998084
0.998741
0.997525
0.998084
0.992387
0.997525
0.99365
1.00084
1.00124
0.999681
0.999297
1.00124
1.00191
0.999297
0.998741
0.998511
0.998457
0.998132
0.998687
0.998457
1.00084
0.998687
0.999681
0.998316
0.998469
0.998351
0.998105
0.998469
0.99851
0.998105
0.998132
0.00834726
0.00128628
0.0295721
0.0029979
0.117672
0.0188924
0.369842
0.0980336
0.0188924
-0.00307404
0.0980335
0.00834726
0.0980336
0.00834726
0.198626
0.0295721
0.369842
0.0980335
0.52414
0.198626
0.43853
0.341226
0.636152
0.60673
0.341226
0.117672
0.60673
0.369842
0.60673
0.369842
0.794915
0.52414
0.636152
0.60673
0.924214
0.794915
0.820581
0.529124
0.967301
0.755152
0.529124
0.43853
0.755152
0.636152
0.755152
0.636152
0.974891
0.924213
0.967301
0.755152
0.992387
0.974891
0.972291
0.905189
0.997536
0.978496
0.905189
0.820581
0.978496
0.967301
0.978496
0.967301
0.998084
0.992387
0.997536
0.978496
1.00191
0.998084
0.998115
0.997536
1.00124
1.00191
0.999817
0.998115
1.00084
1.00124
0.989769
0.999817
0.998457
1.00084
0.989479
0.989769
0.998511
0.998457
0.93848
0.930585
0.988888
0.989479
0.988888
0.989479
0.998469
0.99851
0.989146
0.988888
0.998316
0.998469
4.48421e-05
2.25419e-05
3.98787e-05
-3.26222e-05
2.25419e-05
4.65951e-05
-3.26222e-05
3.29031e-05
4.65951e-05
3.73375e-05
3.29031e-05
4.75302e-05
3.73375e-05
4.14477e-06
4.75302e-05
-3.56774e-06
4.14477e-06
-3.31789e-06
-3.56774e-06
-2.46762e-06
-3.31789e-06
4.36242e-06
-2.46762e-06
3.17776e-06
4.36242e-06
-1.3682e-06
3.17776e-06
-7.93575e-07
-1.3682e-06
6.59953e-07
-7.93575e-07
2.90471e-07
3.98787e-05
-3.26222e-05
-8.43417e-05
-9.87497e-05
-3.26222e-05
3.29031e-05
-9.87497e-05
-0.000100653
3.29031e-05
4.75302e-05
-0.000100653
-4.92478e-05
4.75302e-05
-3.56774e-06
-4.92478e-05
-1.41452e-05
-3.56774e-06
-2.46762e-06
-1.41452e-05
6.38341e-06
-2.46762e-06
3.17776e-06
6.38341e-06
-8.15638e-06
3.17776e-06
-7.93575e-07
-8.15638e-06
2.72908e-06
-7.93575e-07
2.90471e-07
2.72908e-06
-1.45125e-06
-8.43416e-05
-9.87497e-05
0.00015829
0.000272684
-9.87497e-05
-0.000100653
0.000272684
0.00020585
-0.000100653
-4.92478e-05
0.00020585
6.51703e-05
-4.92478e-05
-1.41452e-05
6.51703e-05
3.62077e-05
-1.41452e-05
6.38341e-06
3.62077e-05
-1.24971e-05
6.3834e-06
-8.15638e-06
-1.24971e-05
1.58171e-05
-8.15637e-06
2.72908e-06
1.58171e-05
-5.55671e-06
2.72908e-06
-1.45125e-06
-5.55671e-06
3.11081e-06
0.00015829
0.000272684
-0.000260228
-0.000532899
0.000272684
0.00020585
-0.000532899
-0.000422957
0.00020585
6.51703e-05
-0.000422957
-0.000106946
6.51703e-05
3.62077e-05
-0.000106946
-9.02051e-05
3.62077e-05
-1.24971e-05
-9.0205e-05
2.7121e-05
-1.24971e-05
1.58171e-05
2.7121e-05
-3.19177e-05
1.58171e-05
-5.55671e-06
-3.19177e-05
1.17682e-05
-5.55671e-06
3.11081e-06
1.17682e-05
-6.58167e-06
-0.000260228
-0.000532899
0.00055122
0.000751839
-0.000532899
-0.000422957
0.000751839
0.000641924
-0.000422957
-0.000106946
0.000641924
0.00025103
-0.000106946
-9.0205e-05
0.00025103
8.2126e-05
-9.0205e-05
2.7121e-05
8.2126e-05
-3.78886e-05
2.7121e-05
-3.19177e-05
-3.78886e-05
4.87115e-05
-3.19177e-05
1.17682e-05
4.87115e-05
-1.64722e-05
1.17682e-05
-6.58167e-06
-1.64722e-05
9.37377e-06
0.00055122
0.000667262
-0.00118942
-0.00119765
0.000667262
0.000751839
-0.00119765
-0.0013592
0.000751839
0.000749013
-0.0013592
-0.00151094
0.000749013
0.000641924
-0.00151094
-0.000885102
0.000641924
0.000444031
-0.000885102
-0.000957656
0.000444031
0.00025103
-0.000957656
-0.000626224
0.00025103
0.000146353
-0.000626224
0.000142138
0.000146353
8.2126e-05
0.000142138
-0.00025295
8.2126e-05
3.88706e-06
-0.00025295
-0.000179136
3.88706e-06
-3.78886e-05
-0.000179136
0.00018916
-3.78886e-05
2.74948e-06
0.00018916
6.34989e-05
2.74948e-06
4.87115e-05
6.34989e-05
-0.00012923
4.87115e-05
2.44377e-05
-0.00012923
-7.20645e-05
2.44377e-05
-1.64722e-05
-7.20645e-05
5.21689e-05
-0.00118942
-0.00119765
0.0016665
0.00215715
-0.00119765
-0.0013592
0.00215715
0.00241893
-0.0013592
-0.00151094
0.00241893
0.0021274
-0.00151094
-0.000885102
0.0021274
0.00197531
-0.000885102
-0.000957656
0.00197531
0.00103788
-0.000957656
-0.000626224
0.00103788
0.00052809
-0.000626224
0.000142138
0.00052809
0.000656847
0.000142138
-0.00025295
0.000656847
5.30005e-05
-0.00025295
-0.000179136
5.30005e-05
-0.000153844
-0.000179136
0.00018916
-0.000153844
1.47968e-05
0.00018916
6.34989e-05
1.47968e-05
8.2105e-05
6.34989e-05
-0.00012923
8.2105e-05
0.000108597
-0.00012923
-7.20645e-05
0.000108597
6.05871e-05
-7.20645e-05
5.21689e-05
6.05871e-05
-2.61039e-05
0.0016665
0.00215715
0.000573864
0.00114357
0.00215715
0.00241893
0.00114357
0.000989588
0.00241893
0.0021274
0.000989589
0.000154298
0.0021274
0.00197531
0.000154298
0.00114971
0.00197531
0.00103788
0.00114971
0.000658807
0.00103788
0.00052809
0.000658807
0.000199382
0.00052809
0.000656847
0.000199382
0.000668249
0.000656847
5.30005e-05
0.000668249
-8.97529e-05
5.30005e-05
-0.000153844
-8.9753e-05
-0.000213513
-0.000153844
1.47968e-05
-0.000213513
9.18879e-05
1.47968e-05
8.2105e-05
9.18879e-05
0.000119828
8.2105e-05
0.000108597
0.000119828
-3.11754e-05
0.000108597
6.05871e-05
-3.11754e-05
-5.93643e-05
6.05872e-05
-2.61039e-05
-5.93643e-05
5.42939e-07
0.000856351
0.000573864
0.00648975
0.00582853
0.00648975
0.00582853
0.022118
0.0216556
0.000573864
0.00114357
0.00582853
0.00886375
0.00114357
0.000989589
0.00886375
0.0123443
0.00886375
0.0123443
0.0370839
0.112431
0.00582853
0.00886375
0.0216556
0.0370839
0.000989589
0.000154298
0.0123443
0.0126253
0.000154298
0.00114971
0.0126253
0.0124103
0.0126253
0.0124103
0.139999
0.0648993
0.0123443
0.0126253
0.112431
0.139999
0.00114971
0.000658807
0.0124103
0.00472678
0.000658807
0.000199382
0.00472678
0.00196909
0.00472678
0.00196909
0.012441
0.0204029
0.0124103
0.00472678
0.0648993
0.012441
0.000199382
0.000668249
0.00196909
0.00575332
0.000668249
-8.97528e-05
0.00575332
0.000613674
0.00575332
0.000613675
0.0236634
0.0330502
0.00196909
0.00575332
0.0204029
0.0236634
-8.97528e-05
-0.000213513
0.000613675
-0.00145372
-0.000213513
9.18879e-05
-0.00145372
0.000708495
-0.00145372
0.000708495
0.0130147
0.00213871
0.000613675
-0.00145372
0.0330502
0.0130147
9.1888e-05
0.000119828
0.000708495
0.000589671
0.000119828
-3.11754e-05
0.000589671
0.000168513
0.000589671
0.000168513
-0.00125437
-0.000150302
0.000708495
0.000589671
0.00213871
-0.00125437
-3.11754e-05
-5.93643e-05
0.000168513
-0.000193782
0.000168513
-0.000193782
-0.000150302
-0.000379749
0.022118
0.0216556
0.407799
0.383246
0.407799
0.383246
0.93848
0.930585
0.0216556
0.0370839
0.383246
0.50502
0.0370839
0.112431
0.50502
0.762936
0.50502
0.762935
0.958902
0.991472
0.383246
0.50502
0.930585
0.958902
0.112431
0.139999
0.762936
0.798281
0.139999
0.0648993
0.798281
0.594457
0.798281
0.594457
0.990529
0.972291
0.762936
0.798281
0.991472
0.990529
0.0648993
0.012441
0.594457
0.312277
0.012441
0.0204029
0.312277
0.270214
0.312277
0.270214
0.905189
0.820581
0.594457
0.312277
0.972291
0.905189
0.0204029
0.0236634
0.270214
0.262652
0.0236634
0.0330502
0.262652
0.198082
0.262652
0.198082
0.529124
0.43853
0.270214
0.262652
0.820581
0.529124
0.0330502
0.0130147
0.198082
0.0821819
0.0130147
0.00213871
0.0821819
0.0245668
0.0821819
0.0245668
0.341226
0.117672
0.198082
0.0821819
0.43853
0.341226
0.00213871
-0.00125437
0.0245668
0.00571005
-0.00125437
-0.000150302
0.00571005
0.000909551
0.00571005
0.000909551
0.0188924
-0.00307404
0.0245668
0.00571005
0.117672
0.0188924
0.991472
0.990529
0.999817
0.998115
0.990529
0.972291
0.998115
0.997536
0.930585
0.958902
0.989479
0.989769
0.958902
0.991472
0.989769
0.999817
6.59953e-07
-4.07339e-07
2.90471e-07
-1.63311e-07
-4.07339e-07
2.89876e-07
-1.63311e-07
2.97276e-07
2.89876e-07
-1.17693e-07
2.97276e-07
-1.05384e-07
-1.17693e-07
8.02433e-08
-1.05384e-07
8.35571e-08
8.02433e-08
-4.01947e-08
8.35571e-08
-3.70829e-08
-4.01947e-08
2.02847e-08
-3.70829e-08
2.12204e-08
2.02847e-08
-8.55371e-09
2.12204e-08
-1.13246e-08
-8.55371e-09
-1.03063e-08
-1.13246e-08
-1.13398e-08
2.90471e-07
-1.63311e-07
-1.45125e-06
9.26163e-07
-1.63311e-07
2.97276e-07
9.26163e-07
-4.75173e-07
2.97276e-07
-1.05384e-07
-4.75173e-07
2.03e-07
-1.05384e-07
8.35571e-08
2.03e-07
-1.3273e-07
8.35571e-08
-3.70829e-08
-1.3273e-07
7.00898e-08
-3.7083e-08
2.12204e-08
7.00898e-08
-3.18096e-08
2.12204e-08
-1.13246e-08
-3.18096e-08
9.62365e-09
-1.13246e-08
-1.13398e-08
9.62365e-09
1.51516e-08
-1.45125e-06
9.26163e-07
3.11081e-06
-1.99506e-06
9.26163e-07
-4.75173e-07
-1.99506e-06
8.04427e-07
-4.75173e-07
2.03e-07
8.04427e-07
-3.69995e-07
2.03e-07
-1.3273e-07
-3.69996e-07
2.31798e-07
-1.3273e-07
7.00898e-08
2.31798e-07
-1.28906e-07
7.00898e-08
-3.18096e-08
-1.28906e-07
5.31978e-08
-3.18096e-08
9.62365e-09
5.31978e-08
-1.02205e-08
9.62366e-09
1.51516e-08
-1.02204e-08
-2.37858e-08
3.11081e-06
-1.99506e-06
-6.58167e-06
4.56405e-06
-1.99506e-06
8.04427e-07
4.56405e-06
-1.67291e-06
8.04427e-07
-3.69995e-07
-1.67291e-06
7.22805e-07
-3.69995e-07
2.31798e-07
7.22805e-07
-3.4824e-07
2.31798e-07
-1.28906e-07
-3.4824e-07
2.39001e-07
-1.28906e-07
5.31978e-08
2.39001e-07
-9.36544e-08
5.31978e-08
-1.02204e-08
-9.36544e-08
1.30283e-08
-1.02204e-08
-2.37858e-08
1.30283e-08
4.05969e-08
-6.58167e-06
4.56405e-06
9.37377e-06
-5.66797e-06
4.56405e-06
-1.67291e-06
-5.66797e-06
2.81071e-06
-1.67291e-06
7.22805e-07
2.8107e-06
-1.28379e-06
7.22805e-07
-3.4824e-07
-1.28379e-06
9.25383e-07
-3.4824e-07
2.39001e-07
9.25383e-07
-4.62545e-07
2.39001e-07
-9.36544e-08
-4.62545e-07
2.02186e-07
-9.36544e-08
1.30283e-08
2.02186e-07
-4.96755e-08
1.30283e-08
4.05969e-08
-4.96755e-08
-9.10959e-08
-1.64722e-05