# vtk DataFile Version 2.0
Hex test
ASCII
DATASET UNSTRUCTURED_GRID
POINTS 5340 float
24 14 0
24 16 0
26 14 0
26 16 0
24 16 0
24 18 0
26 16 0
26 18 0
24 18 0
24 20 0
26 18 0
26 20 0
24 20 0
24 22 0
26 20 0
26 22 0
26 14 0
26 15 0
28 14 0
28 15 0
26 15 0
26 16 0
28 15 0
28 16 0
26 16 0
26 18 0
28 16 0
28 18 0
26 18 0
26 20 0
28 18 0
28 20 0
26 20 0
26 22 0
28 20 0
28 22 0
26 22 0
26 24 0
28 22 0
28 24 0
28 14 0
28 15 0
30 14 0
30 15 0
28 15 0
28 16 0
30 15 0
30 16 0
28 16 0
28 17 0
30 16 0
30 17 0
28 17 0
28 18 0
30 17 0
30 18 0
28 18 0
28 20 0
30 18 0
30 20 0
28 20 0
28 22 0
30 20 0
30 22 0
28 22 0
28 24 0
30 22 0
30 24 0
30 16 0
30 17 0
32 16 0
32 17 0
30 17 0
30 18 0
32 17 0
32 18 0
30 18 0
30 19 0
32 18 0
32 19 0
30 19 0
30 20 0
32 19 0
32 20 0
36 16 0
36 17 0
37 16 0
37 17 0
36 14 0
36 15 0
37 14 0
37 15 0
36 15 0
36 16 0
37 15 0
37 16 0
37 15 0
37 16 0
38 15 0
38 16 0
36 13 0
36 14 0
37 13 0
37 14 0
34 16 0
34 17 0
35 16 0
35 17 0
35 16 0
35 17 0
36 16 0
36 17 0
34 17 0
34 18 0
35 17 0
35 18 0
35 17 0
35 18 0
36 17 0
36 18 0
34 14 0
34 15 0
35 14 0
35 15 0
34 15 0
34 16 0
35 15 0
35 16 0
35 15 0
35 16 0
36 15 0
36 16 0
35 14 0
35 15 0
36 14 0
36 15 0
34 12 0
34 13 0
35 12 0
35 13 0
34 13 0
34 14 0
35 13 0
35 14 0
35 13 0
35 14 0
36 13 0
36 14 0
35 12 0
35 13 0
36 12 0
36 13 0
34 10 0
34 11 0
35 10 0
35 11 0
34 11 0
34 12 0
35 11 0
35 12 0
32 16 0
32 17 0
34 16 0
34 17 0
32 17 0
32 18 0
34 17 0
34 18 0
32 14 0
32 15 0
33 14 0
33 15 0
33 14 0
33 15 0
34 14 0
34 15 0
32 15 0
32 16 0
33 15 0
33 16 0
33 15 0
33 16 0
34 15 0
34 16 0
32 12 0
32 13 0
33 12 0
33 13 0
32 13 0
32 14 0
33 13 0
33 14 0
33 13 0
33 14 0
34 13 0
34 14 0
33 12 0
33 13 0
34 12 0
34 13 0
24 11 0
24 12 0
25 11 0
25 12 0
25 11 0
25 12 0
26 11 0
26 12 0
25 10 0
25 11 0
26 10 0
26 11 0
24 12 0
24 13 0
25 12 0
25 13 0
25 12 0
25 13 0
26 12 0
26 13 0
24 13 0
24 14 0
25 13 0
25 14 0
25 13 0
25 14 0
26 13 0
26 14 0
32 11 0
32 12 0
33 11 0
33 12 0
33 11 0
33 12 0
34 11 0
34 12 0
33 10 0
33 11 0
34 10 0
34 11 0
30 14 0
30 15 0
32 14 0
32 15 0
30 15 0
30 16 0
32 15 0
32 16 0
30 12 0
30 13 0
31 12 0
31 13 0
31 12 0
31 13 0
32 12 0
32 13 0
30 13 0
30 14 0
31 13 0
31 14 0
31 13 0
31 14 0
32 13 0
32 14 0
30 10 0
30 11 0
31 10 0
31 11 0
30 11 0
30 12 0
31 11 0
31 12 0
31 11 0
31 12 0
32 11 0
32 12 0
26 10 0
26 11 0
27 10 0
27 11 0
26 11 0
26 12 0
27 11 0
27 12 0
27 11 0
27 12 0
28 11 0
28 12 0
27 10 0
27 11 0
28 10 0
28 11 0
26 12 0
26 13 0
27 12 0
27 13 0
27 12 0
27 13 0
28 12 0
28 13 0
26 13 0
26 14 0
27 13 0
27 14 0
27 13 0
27 14 0
28 13 0
28 14 0
28 12 0
28 13 0
29 12 0
29 13 0
29 12 0
29 13 0
30 12 0
30 13 0
28 13 0
28 14 0
29 13 0
29 14 0
29 13 0
29 14 0
30 13 0
30 14 0
28 10 0
28 11 0
29 10 0
29 11 0
28 11 0
28 12 0
29 11 0
29 12 0
29 11 0
29 12 0
30 11 0
30 12 0
29 10 0
29 11 0
30 10 0
30 11 0
28 24 0
28 26 0
30 24 0
30 26 0
30 20 0
30 22 0
32 20 0
32 22 0
30 22 0
30 24 0
32 22 0
32 24 0
30 24 0
30 26 0
32 24 0
32 26 0
32 18 0
32 19 0
34 18 0
34 19 0
32 19 0
32 20 0
34 19 0
34 20 0
32 20 0
32 21 0
34 20 0
34 21 0
32 21 0
32 22 0
34 21 0
34 22 0
32 22 0
32 23 0
34 22 0
34 23 0
32 23 0
32 24 0
34 23 0
34 24 0
32 24 0
32 25 0
34 24 0
34 25 0
32 25 0
32 26 0
34 25 0
34 26 0
34 20 0
34 21 0
36 20 0
36 21 0
34 21 0
34 22 0
36 21 0
36 22 0
34 22 0
34 23 0
36 22 0
36 23 0
34 23 0
34 24 0
36 23 0
36 24 0
34 24 0
34 25 0
36 24 0
36 25 0
34 25 0
34 26 0
36 25 0
36 26 0
44.1667 22 0
44.1667 23 0
48 22 0
48 23 0
44.1667 23 0
44.1667 24 0
48 23 0
48 24 0
44.1667 20 0
44.1667 21 0
48 20 0
48 21 0
44.1667 21 0
44.1667 22 0
48 21 0
48 22 0
44.1667 18 0
44.1667 19 0
48 18 0
48 19 0
44.1667 19 0
44.1667 20 0
48 19 0
48 20 0
44.1667 17 0
44.1667 18 0
48 17 0
48 18 0
42 22 0
42 23 0
43.0208 22 0
43.0208 23 0
42 23 0
42 24 0
43.0208 23 0
43.0208 24 0
43.0208 23 0
43.0208 24 0
44.1667 23 0
44.1667 24 0
43.0208 22 0
43.0208 23 0
44.1667 22 0
44.1667 23 0
42 20 0
42 21 0
43.0208 20 0
43.0208 21 0
42 21 0
42 22 0
43.0208 21 0
43.0208 22 0
43.0208 21 0
43.0208 22 0
44.1667 21 0
44.1667 22 0
43.0208 20 0
43.0208 21 0
44.1667 20 0
44.1667 21 0
42 18 0
42 19 0
43.0208 18 0
43.0208 19 0
42 19 0
42 20 0
43.0208 19 0
43.0208 20 0
43.0208 19 0
43.0208 20 0
44.1667 19 0
44.1667 20 0
43.0208 18 0
43.0208 19 0
44.1667 18 0
44.1667 19 0
42 17 0
42 18 0
43.0208 17 0
43.0208 18 0
43.0208 17 0
43.0208 18 0
44.1667 17 0
44.1667 18 0
40 22 0
40 23 0
41 22 0
41 23 0
40 23 0
40 24 0
41 23 0
41 24 0
41 23 0
41 24 0
42 23 0
42 24 0
41 22 0
41 23 0
42 22 0
42 23 0
40 20 0
40 21 0
41 20 0
41 21 0
40 21 0
40 22 0
41 21 0
41 22 0
41 21 0
41 22 0
42 21 0
42 22 0
41 20 0
41 21 0
42 20 0
42 21 0
40 18 0
40 19 0
41 18 0
41 19 0
40 19 0
40 20 0
41 19 0
41 20 0
41 19 0
41 20 0
42 19 0
42 20 0
41 18 0
41 19 0
42 18 0
42 19 0
40 17 0
40 18 0
41 17 0
41 18 0
41 17 0
41 18 0
42 17 0
42 18 0
38 24 0
38 25 0
39 24 0
39 25 0
39 24 0
39 25 0
40 24 0
40 25 0
38 22 0
38 23 0
39 22 0
39 23 0
38 23 0
38 24 0
39 23 0
39 24 0
39 23 0
39 24 0
40 23 0
40 24 0
39 22 0
39 23 0
40 22 0
40 23 0
38 20 0
38 21 0
39 20 0
39 21 0
38 21 0
38 22 0
39 21 0
39 22 0
39 21 0
39 22 0
40 21 0
40 22 0
39 20 0
39 21 0
40 20 0
40 21 0
38 18 0
38 19 0
39 18 0
39 19 0
38 19 0
38 20 0
39 19 0
39 20 0
39 19 0
39 20 0
40 19 0
40 20 0
39 18 0
39 19 0
40 18 0
40 19 0
38 16 0
38 17 0
39 16 0
39 17 0
38 17 0
38 18 0
39 17 0
39 18 0
39 17 0
39 18 0
40 17 0
40 18 0
36 24 0
36 25 0
38 24 0
38 25 0
36 25 0
36 26 0
38 25 0
38 26 0
36 22 0
36 23 0
38 22 0
38 23 0
36 23 0
36 24 0
38 23 0
38 24 0
36 20 0
36 21 0
38 20 0
38 21 0
36 21 0
36 22 0
38 21 0
38 22 0
36 18 0
36 19 0
37 18 0
37 19 0
37 18 0
37 19 0
38 18 0
38 19 0
36 19 0
36 20 0
37 19 0
37 20 0
37 19 0
37 20 0
38 19 0
38 20 0
36 17 0
36 18 0
37 17 0
37 18 0
37 17 0
37 18 0
38 17 0
38 18 0
37 16 0
37 17 0
38 16 0
38 17 0
34 18 0
34 19 0
36 18 0
36 19 0
34 19 0
34 20 0
36 19 0
36 20 0
24 0 0
24 3.83333 0
26 0 0
26 3.83333 0
26 0 0
26 3.83333 0
28 0 0
28 3.83333 0
28 0 0
28 3.83333 0
30 0 0
30 3.83333 0
30 0 0
30 3.83333 0
32 0 0
32 3.83333 0
32 0 0
32 3.83333 0
34 0 0
34 3.83333 0
34 0 0
34 3.83333 0
36 0 0
36 3.83333 0
36 0 0
36 3.83333 0
38 0 0
38 3.83333 0
36 3.83333 0
36 4.97917 0
38 3.83333 0
38 4.97917 0
36 4.97917 0
36 6 0
38 4.97917 0
38 6 0
38 0 0
38 3.83333 0
40 0 0
40 3.83333 0
38 3.83333 0
38 4.97917 0
40 3.83333 0
40 4.97917 0
38 4.97917 0
38 6 0
40 4.97917 0
40 6 0
36 6 0
36 7 0
37 6 0
37 7 0
37 6 0
37 7 0
38 6 0
38 7 0
34 8 0
34 9 0
35 8 0
35 9 0
34 9 0
34 10 0
35 9 0
35 10 0
35 8 0
35 9 0
36 8 0
36 9 0
34 6 0
34 7 0
35 6 0
35 7 0
35 6 0
35 7 0
36 6 0
36 7 0
34 7 0
34 8 0
35 7 0
35 8 0
35 7 0
35 8 0
36 7 0
36 8 0
34 3.83333 0
34 4.97917 0
36 3.83333 0
36 4.97917 0
34 4.97917 0
34 6 0
36 4.97917 0
36 6 0
24 3.83333 0
24 4.97917 0
25 3.83333 0
25 4.97917 0
25 3.83333 0
25 4.97917 0
26 3.83333 0
26 4.97917 0
24 4.97917 0
24 6 0
25 4.97917 0
25 6 0
25 4.97917 0
25 6 0
26 4.97917 0
26 6 0
25 7 0
25 8 0
26 7 0
26 8 0
25 6 0
25 7 0
26 6 0
26 7 0
25 9 0
25 10 0
26 9 0
26 10 0
25 8 0
25 9 0
26 8 0
26 9 0
32 10 0
32 11 0
33 10 0
33 11 0
32 8 0
32 9 0
33 8 0
33 9 0
32 9 0
32 10 0
33 9 0
33 10 0
33 9 0
33 10 0
34 9 0
34 10 0
33 8 0
33 9 0
34 8 0
34 9 0
32 6 0
32 7 0
33 6 0
33 7 0
32 7 0
32 8 0
33 7 0
33 8 0
33 7 0
33 8 0
34 7 0
34 8 0
33 6 0
33 7 0
34 6 0
34 7 0
32 3.83333 0
32 4.97917 0
33 3.83333 0
33 4.97917 0
33 3.83333 0
33 4.97917 0
34 3.83333 0
34 4.97917 0
32 4.97917 0
32 6 0
33 4.97917 0
33 6 0
33 4.97917 0
33 6 0
34 4.97917 0
34 6 0
31 10 0
31 11 0
32 10 0
32 11 0
30 8 0
30 9 0
31 8 0
31 9 0
30 9 0
30 10 0
31 9 0
31 10 0
31 9 0
31 10 0
32 9 0
32 10 0
31 8 0
31 9 0
32 8 0
32 9 0
30 6 0
30 7 0
31 6 0
31 7 0
30 7 0
30 8 0
31 7 0
31 8 0
31 7 0
31 8 0
32 7 0
32 8 0
31 6 0
31 7 0
32 6 0
32 7 0
26 3.83333 0
26 4.97917 0
27 3.83333 0
27 4.97917 0
27 3.83333 0
27 4.97917 0
28 3.83333 0
28 4.97917 0
26 4.97917 0
26 6 0
27 4.97917 0
27 6 0
27 4.97917 0
27 6 0
28 4.97917 0
28 6 0
26 6 0
26 7 0
27 6 0
27 7 0
26 7 0
26 8 0
27 7 0
27 8 0
27 7 0
27 8 0
28 7 0
28 8 0
27 6 0
27 7 0
28 6 0
28 7 0
26 8 0
26 9 0
27 8 0
27 9 0
26 9 0
26 10 0
27 9 0
27 10 0
27 9 0
27 10 0
28 9 0
28 10 0
27 8 0
27 9 0
28 8 0
28 9 0
30 3.83333 0
30 4.97917 0
31 3.83333 0
31 4.97917 0
31 3.83333 0
31 4.97917 0
32 3.83333 0
32 4.97917 0
30 4.97917 0
30 6 0
31 4.97917 0
31 6 0
31 4.97917 0
31 6 0
32 4.97917 0
32 6 0
28 8 0
28 9 0
29 8 0
29 9 0
28 9 0
28 10 0
29 9 0
29 10 0
29 9 0
29 10 0
30 9 0
30 10 0
29 8 0
29 9 0
30 8 0
30 9 0
28 6 0
28 7 0
29 6 0
29 7 0
28 7 0
28 8 0
29 7 0
29 8 0
29 7 0
29 8 0
30 7 0
30 8 0
29 6 0
29 7 0
30 6 0
30 7 0
28 3.83333 0
28 4.97917 0
29 3.83333 0
29 4.97917 0
29 3.83333 0
29 4.97917 0
30 3.83333 0
30 4.97917 0
28 4.97917 0
28 6 0
29 4.97917 0
29 6 0
29 4.97917 0
29 6 0
30 4.97917 0
30 6 0
40 0 0
40 3.83333 0
42 0 0
42 3.83333 0
40 3.83333 0
40 6 0
42 3.83333 0
42 6 0
40 6 0
40 7 0
42 6 0
42 7 0
40 7 0
40 8 0
42 7 0
42 8 0
42 0 0
42 3.83333 0
44.1667 0 0
44.1667 3.83333 0
42 3.83333 0
42 6 0
44.1667 3.83333 0
44.1667 6 0
42 6 0
42 7 0
44.1667 6 0
44.1667 7 0
42 7 0
42 8 0
44.1667 7 0
44.1667 8 0
42 8 0
42 9 0
44.1667 8 0
44.1667 9 0
42 9 0
42 10 0
44.1667 9 0
44.1667 10 0
44.1667 0 0
44.1667 3.83333 0
48 0 0
48 3.83333 0
44.1667 3.83333 0
44.1667 6 0
48 3.83333 0
48 6 0
44.1667 6 0
44.1667 8 0
48 6 0
48 8 0
44.1667 8 0
44.1667 9 0
48 8 0
48 9 0
44.1667 9 0
44.1667 10 0
48 9 0
48 10 0
44.1667 10 0
44.1667 11 0
48 10 0
48 11 0
44.1667 11 0
44.1667 12 0
48 11 0
48 12 0
44.1667 12 0
44.1667 13 0
48 12 0
48 13 0
44.1667 13 0
44.1667 14 0
48 13 0
48 14 0
44.1667 16 0
44.1667 17 0
48 16 0
48 17 0
44.1667 14 0
44.1667 15 0
48 14 0
48 15 0
44.1667 15 0
44.1667 16 0
48 15 0
48 16 0
42 16 0
42 17 0
43.0208 16 0
43.0208 17 0
43.0208 16 0
43.0208 17 0
44.1667 16 0
44.1667 17 0
42 14 0
42 15 0
43.0208 14 0
43.0208 15 0
43.0208 14 0
43.0208 15 0
44.1667 14 0
44.1667 15 0
42 15 0
42 16 0
43.0208 15 0
43.0208 16 0
43.0208 15 0
43.0208 16 0
44.1667 15 0
44.1667 16 0
42 12 0
42 13 0
44.1667 12 0
44.1667 13 0
42 13 0
42 14 0
44.1667 13 0
44.1667 14 0
42 10 0
42 11 0
44.1667 10 0
44.1667 11 0
42 11 0
42 12 0
[...]
POINT_DATA 5340
SCALARS phi float 1
LOOKUP_TABLE default
0.999558
0.999325
1.00003
0.999876
0.999326
1.00027
0.999876
1.00055
1.00027
0.999595
1.00055
1.00048
0.999595
0.99987
1.00048
1.00047
1.00003
1.00072
0.998921
1.00234
1.00072
0.999876
1.00234
0.998946
0.999876
1.00055
0.998946
0.999773
1.00055
1.00048
0.999773
0.99861
1.00048
1.00047
0.99861
0.999181
1.00047
1.00052
0.999181
0.999168
0.998921
1.00234
0.999726
0.999119
1.00234
0.998946
0.999119
1.00126
0.998946
0.998504
1.00126
1.0006
0.998504
0.999773
1.0006
1.00147
0.999773
0.99861
1.00147
1.00203
0.99861
0.999181
1.00203
1.00171
0.999181
0.999168
1.00171
1.00171
1.00126
1.0006
0.99868
0.998681
1.0006
1.00147
0.998681
0.995957
1.00147
1.00206
0.995957
0.998079
1.00206
1.00203
0.998079
0.99531
0.874109
0.986544
0.462081
0.861518
0.293986
0.5227
0.0194364
0.0504078
0.5227
0.874109
0.0504078
0.462081
0.0504078
0.462081
0.0102411
0.0611897
0.0672896
0.293986
0.0038456
0.0194364
0.994678
1.00607
0.987348
0.984832
0.987348
0.984832
0.874109
0.986544
1.00607
1.00187
0.984832
0.996672
0.984832
0.996672
0.986544
0.998803
0.972021
0.999978
0.869473
0.937716
0.999978
0.994678
0.937716
0.987348
0.937716
0.987348
0.5227
0.874109
0.869473
0.937716
0.293986
0.5227
0.285515
0.870533
0.0669006
0.468788
0.870533
0.972021
0.468788
0.869473
0.468788
0.869473
0.0672896
0.293986
0.0669006
0.468788
0.0111264
0.0672896
0.0059354
0.0146421
-0.00382114
0.00295182
0.0146421
0.285515
0.00295182
0.0669006
0.99868
0.998681
0.994678
1.00607
0.998681
0.995957
1.00607
1.00187
0.998177
1.0028
0.995608
1.00629
0.995608
1.00629
0.972021
0.999978
1.0028
0.99868
1.00629
0.996009
1.00629
0.996009
0.999978
0.994678
0.865519
0.986238
0.497988
0.93866
0.986238
0.998177
0.93866
0.995608
0.93866
0.995608
0.870533
0.972021
0.497988
0.93866
0.285515
0.870533
0.988086
1.00598
0.989232
1.00491
0.989232
1.00491
0.988586
1.00442
0.899514
0.989232
0.898145
0.988586
1.00598
0.996354
1.00491
0.999093
1.00491
0.999093
1.00442
1.00032
0.996354
0.999558
0.999093
0.999936
0.999093
0.999936
1.00032
1.00003
0.457841
0.865519
0.0362669
0.497988
0.0362669
0.497988
0.0146421
0.285515
0.0115868
0.0362669
0.0059354
0.0146421
0.999726
0.999119
0.998177
1.0028
0.999119
1.00126
1.0028
0.99868
0.987909
1.00543
0.97639
0.996838
0.97639
0.996838
0.865519
0.986238
1.00543
0.999726
0.996837
0.997381
0.996837
0.997381
0.986238
0.998177
0.549602
0.952266
0.272093
0.862761
0.952266
0.987909
0.862761
0.97639
0.862761
0.97639
0.457841
0.865519
0.898145
0.988586
0.893108
0.98998
0.988586
1.00442
0.98998
1.00548
0.98998
1.00548
0.984262
1.00831
0.893108
0.98998
0.912493
0.984262
1.00442
1.00032
1.00548
0.995061
1.00548
0.995061
1.00831
0.994697
1.00032
1.00003
0.995061
0.999289
0.995061
0.999289
0.994697
0.998921
1.00831
0.994697
1.00398
1.00369
1.00398
1.00369
0.987909
1.00543
0.994697
0.998921
1.00369
0.999804
1.00369
0.999804
1.00543
0.999726
0.912493
0.984262
0.862686
0.984316
0.984262
1.00831
0.984316
1.00398
0.984316
1.00398
0.952266
0.987909
0.862686
0.984316
0.549602
0.952266
0.999168
0.998651
1.00171
1.00197
1.00203
1.00171
0.99531
0.997731
1.00171
1.00171
0.997731
0.995813
1.00171
1.00197
0.995813
0.99777
0.995957
0.998079
1.00187
1.00768
0.998079
0.995311
1.00768
1.00715
0.99531
0.995739
1.00715
1.00584
0.995739
0.997731
1.00584
1.0058
0.997731
0.996984
1.0058
1.00571
0.996984
0.995813
1.00571
1.00593
0.995813
0.996899
1.00593
1.00665
0.996899
0.99777
1.00665
1.00653
1.00715
1.00584
0.989391
0.993938
1.00584
1.0058
0.993938
0.993068
1.0058
1.00571
0.993068
0.99342
1.00571
1.00593
0.99342
0.993254
1.00593
1.00665
0.993254
0.992846
1.00665
1.00653
0.992846
0.993178
-0.000211251
-0.000222741
0
0
-0.000222741
-0.000210594
0
0
-0.000131079
-0.000225875
0
0
-0.000225875
-0.000211251
0
0
0.000631571
0.000173714
0
0
0.000173714
-0.000131079
0
0
6.43657e-05
0.000631571
0
0
-0.00180924
-0.00189007
0.000784843
0.000823399
-0.00189007
-0.00177621
0.000823399
0.000781788
0.000823399
0.000781788
-0.000222741
-0.000210594
0.000784843
0.000823399
-0.000211251
-0.000222741
-0.00120086
-0.00187716
0.000507991
0.000830248
-0.00187716
-0.00180924
0.000830248
0.000784843
0.000830248
0.000784843
-0.000225875
-0.000211251
0.000507991
0.000830248
-0.000131079
-0.000225875
0.0051886
0.00162247
-0.0022912
-0.000688012
0.00162247
-0.00120086
-0.000688011
0.000507991
-0.000688012
0.000507991
0.000173714
-0.000131079
-0.0022912
-0.000688012
0.000631571
0.000173714
0.0011097
0.0051886
-0.000398085
-0.0022912
-0.000398085
-0.0022912
6.43658e-05
0.000631571
-0.00180725
-0.00239476
0.00356328
0.00372719
-0.00239476
-0.00136519
0.00372719
0.00351555
0.00372719
0.00351555
-0.00189007
-0.00177621
0.00356328
0.00372719
-0.00180924
-0.00189007
0.00281033
-0.00249151
0.00248565
0.00362371
-0.00249151
-0.00180725
0.00362371
0.00356328
0.00362371
0.00356328
-0.00187716
-0.00180924
0.00248565
0.00362371
-0.00120086
-0.00187716
0.0198779
0.0102785
-0.0105019
-0.00320999
0.0102785
0.00281033
-0.00320999
0.00248565
-0.00320999
0.00248565
0.00162247
-0.00120086
-0.0105019
-0.00320999
0.0051886
0.00162247
0.00427682
0.0198779
-0.00238862
-0.0105019
-0.00238862
-0.0105019
0.0011097
0.0051886
0.759315
0.759664
0.199691
0.197051
0.199691
0.197051
-0.00136519
-0.00177202
0.758166
0.760275
0.198393
0.198418
0.760275
0.759315
0.198418
0.199691
0.198418
0.199691
-0.00239476
-0.00136519
0.198393
0.198418
-0.00180725
-0.00239476
0.759573
0.756568
0.195416
0.198975
0.756568
0.758166
0.198975
0.198393
0.198975
0.198393
-0.00249151
-0.00180725
0.195416
0.198975
0.00281033
-0.00249151
0.506024
0.725497
0.0248457
0.13011
0.725497
0.759573
0.13011
0.195416
0.13011
0.195416
0.0102785
0.00281033
0.0248457
0.13011
0.0198779
0.0102785
0.0611897
0.277088
0.00777569
0.00937699
0.277088
0.506024
0.00937699
0.0248457
0.00937699
0.0248457
0.00427682
0.0198779
0.993254
0.992846
0.759315
0.759664
0.992846
0.993178
0.759664
0.758267
0.993068
0.99342
0.758166
0.760275
0.99342
0.993254
0.760275
0.759315
0.989391
0.993938
0.759573
0.756568
0.993938
0.993068
0.756568
0.758166
0.998803
0.988312
0.934499
1.00387
0.934499
1.00387
0.506024
0.725497
0.988312
0.989391
1.00387
1.00214
1.00387
1.00214
0.725497
0.759573
0.986544
0.998803
0.861518
0.934499
0.861518
0.934499
0.277088
0.506024
0.462081
0.861518
0.0611897
0.277088
1.00187
1.00768
0.998803
0.988312
1.00768
1.00715
0.988312
0.989391
-0.00125453
-0.000604604
-0.000710612
-0.000344366
-0.000710612
-0.000344366
-0.00146521
-0.000702953
-0.00146521
-0.000702953
0.000778224
0.000367372
0.000778224
0.000367372
-7.09998e-05
-2.60545e-05
-7.09998e-05
-2.60545e-05
0.000219017
9.86321e-05
0.000219017
9.86321e-05
-4.68367e-05
-9.4318e-06
-4.68367e-05
-9.43181e-06
-6.13765e-05
-5.98505e-05
-9.43179e-06
0.00017239
-5.98505e-05
-5.06468e-07
0.00017239
-1.9047e-05
-5.06468e-07
-5.96892e-05
-6.13765e-05
-5.98505e-05
1.083e-05
1.573e-05
-5.98505e-05
-5.0646e-07
1.573e-05
2.69018e-05
-5.0646e-07
-5.96892e-05
2.69018e-05
1.31525e-05
-1.9047e-05
5.04706e-05
-4.86629e-05
-0.000108015
-4.86629e-05
-0.000108015
-5.96892e-05
1.82072e-05
0.00120973
-0.00248036
-0.000576414
0.00141729
-0.00248036
0.0059354
0.00141729
-0.00382114
-0.000576414
0.00141729
0.000136846
-0.000402255
0.00038019
-0.000556391
4.24995e-05
0.000101065
4.24995e-05
0.000101065
-1.9047e-05
5.04706e-05
-0.000556391
0.00120973
0.000101065
-0.000576414
0.000101065
-0.000576414
5.04706e-05
0.000136845
9.8632e-05
-0.000388253
-9.4318e-06
0.00017239
-0.000388253
0.00038019
0.00017239
-1.9047e-05
-0.000604604
0.00172436
-0.000446951
0.000984312
-0.000446951
0.000984312
-0.000344366
0.000469036
0.00172436
-0.00265055
0.000984312
-0.00235067
0.000984312
-0.00235067
0.000469036
-0.00218861
0.00437876
0.000131882
0.0043551
0.000376688
-0.00235067
0.00437876
-0.00218861
0.0043551
0.265997
0.899514
0.268953
0.898145
0.00013188
0.265997
0.000376686
0.268953
0.0660304
0.457841
0.0115868
0.0362669
-0.00342153
0.00818075
0.00334582
-0.0058529
0.00818075
0.0660304
-0.00585289
0.0115868
-0.0058529
0.0115868
-0.00248036
0.0059354
0.00334582
-0.00585289
0.00120973
-0.00248036
-0.000637587
0.00166908
0.000564846
-0.00166203
0.00166908
-0.00342153
-0.00166203
0.00334582
-0.00166203
0.00334582
-0.000556391
0.00120973
0.000564846
-0.00166203
0.00038019
-0.000556391
-2.60546e-05
-0.000219833
-2.64725e-05
0.000512126
-2.64725e-05
0.000512126
9.86321e-05
-0.000388253
-0.000219833
-0.000637587
0.000512126
0.000564846
0.000512126
0.000564846
-0.000388253
0.000380191
0.272093
0.862761
0.0660304
0.457841
0.0142372
0.062367
0.00382042
0.0115674
0.062367
0.549602
0.0115674
0.272093
0.0115674
0.272093
0.00818075
0.0660304
0.00382042
0.0115674
-0.00342153
0.00818074
0.0027625
-0.00617504
0.00116242
-0.00208357
-0.00617504
0.0142372
-0.00208357
0.00382042
-0.00208357
0.00382042
0.00166908
-0.00342153
0.00116242
-0.00208357
-0.000637587
0.00166908
-0.000344366
0.000469036
-0.000605894
0.00198902
-0.000605894
0.00198902
-0.000702953
0.00168603
0.000469036
-0.00218861
0.00198902
-0.00230506
0.00198902
-0.00230506
0.00168603
-0.00356557
-0.00218861
0.0043551
-0.00230506
0.00364341
0.0043551
0.000376686
0.00364341
0.000325917
0.00364341
0.000325917
0.00646269
-0.000984183
-0.00230506
0.00364341
-0.00356557
0.00646269
0.000376687
0.268953
0.000325917
0.247495
0.268953
0.898145
0.247495
0.893108
0.247495
0.893108
0.303157
0.912493
0.000325918
0.247495
-0.000984185
0.303157
0.000367372
-0.00035385
0.000275609
-0.00082149
0.000275609
-0.00082149
-2.60545e-05
-0.000219833
-0.00035385
0.0027625
-0.00082149
0.00116242
-0.00082149
0.00116242
-0.000219833
-0.000637587
-0.000984184
0.303157
0.00609179
0.270224
0.303157
0.912493
0.270224
0.862686
0.270224
0.862686
0.062367
0.549602
0.00609179
0.270224
0.0142372
0.062367
-0.00356557
0.00646269
-0.00156487
0.00315587
0.00646269
-0.000984185
0.00315587
0.00609179
0.00315587
0.00609179
-0.00617504
0.0142372
-0.00156486
0.00315587
0.0027625
-0.00617504
-0.000702953
0.00168603
-0.000170206
-0.000145005
-0.000170206
-0.000145005
0.000367372
-0.00035385
0.00168603
-0.00356557
-0.000145005
-0.00156487
-0.000145005
-0.00156487
-0.00035385
0.0027625
1.083e-05
1.573e-05
-1.0079e-05
-1.27094e-05
1.573e-05
1.31525e-05
-1.27094e-05
-3.6508e-06
1.31525e-05
-1.55657e-05
-3.65081e-06
8.04998e-07
-1.55657e-05
-1.6438e-06
8.04998e-07
7.0676e-06
-1.0079e-05
-1.27094e-05
5.55568e-06
7.1806e-06
-1.27094e-05
-3.65081e-06
7.1806e-06
2.185e-06
-3.6508e-06
8.04999e-07
2.185e-06
-2.08378e-06
8.04999e-07
7.0676e-06
-2.08378e-06
-3.83962e-07
7.0676e-06
-2.18634e-05
-3.83963e-07
9.24115e-06
-2.18634e-05
-1.56084e-05
9.24115e-06
1.49844e-05
5.55568e-06
7.1806e-06
0
0
7.1806e-06
2.185e-06
0
0
2.185e-06
-3.83962e-07
0
0
-3.83963e-07
9.24115e-06
0
0
9.24115e-06
1.49844e-05
0
0
1.49844e-05
-1.34669e-05
0
0
-1.34669e-05
-1.51412e-05
0
0
-1.51411e-05
8.26877e-05
0
0
8.26877e-05
-0.000146718
0
0
7.29452e-05
6.43658e-05
0
0
-0.000146718
-0.000422631
0
0
-0.000422631
7.29452e-05
0
0
-0.000564007
0.0011097
5.21123e-05
-0.000398085
5.21123e-05
-0.000398085
7.29452e-05
6.43658e-05
-2.71891e-05
-0.000165378
0.000265318
0.000652762
0.000265318
0.000652762
-0.000146718
-0.000422631
-0.000165378
-0.000564007
0.000652762
5.21123e-05
0.000652762
5.21123e-05
-0.000422631
7.29452e-05
-9.87221e-06
2.47145e-05
-1.51411e-05
8.26877e-05
2.47145e-05
-2.71891e-05
8.26877e-05
-0.000146718
-1.56084e-05
-7.804e-06
1.49844e-05
-1.34669e-05
-7.80401e-06
-9.87221e-06
-1.34669e-05
-1.51411e-05
-0.0031522
0.00427682
0.00154553
-0.00238862
0.00154553
-0.00238862
-0.000564007
0.0011097
0.00129642
0.00243561
-0.000505071
-0.000901821
0.00243561
-0.0031522
-0.000901821
0.00154553
-0.000901821
0.00154553
-0.000165378
-0.000564007
-0.000505071
-0.000901821
-2.71891e-05
-0.000165378
0.000213679
-0.000805521
-8.27266e-05
0.000310767
-0.000805521
0.00129642
0.000310767
-0.000505071
0.000310767
-0.000505071
2.47145e-05
-2.71891e-05
-8.27265e-05
0.000310768
-9.8722e-06
2.47144e-05
-1.68508e-05
0.00011827
4.06426e-05
-3.42541e-05
4.06426e-05
-3.42541e-05
-1.56084e-05
-7.804e-06
0.00011827
0.000213679
-3.42541e-05
-8.27265e-05
-3.42541e-05
-8.27265e-05
-7.80401e-06
-9.87219e-06
-1.6438e-06
2.40705e-05
7.0676e-06
-2.18634e-05
2.40705e-05
-1.68508e-05
-2.18634e-05
-1.56084e-05
0.00777569
0.00937699
-0.0031522
0.00427682
0.00592366
0.0102411
-0.00259934
-0.00468392
0.0102411
0.0611897
-0.00468392
0.00777569
-0.00468392
0.00777569
0.00243561
-0.0031522
-0.00259934
-0.00468392
0.00129642
0.00243561
0.00124147
-0.00410205
-0.000446753
0.00168335
-0.00410205
0.00592366
0.00168335
-0.00259934
0.00168335
-0.00259934
-0.000805521
0.00129642
-0.000446753
0.00168335
0.000213679
-0.000805521
0.000337613
0.000275402
-7.17829e-05
-0.000246533
0.000275402
0.00124147
-0.000246533
-0.000446753
-0.000246532
-0.000446753
0.00011827
0.000213679
-7.17829e-05
-0.000246533
-1.68508e-05
0.00011827
2.85417e-05
-2.8411e-05
-9.90647e-06
-6.20929e-05
-9.90647e-06
-6.20929e-05
-1.6438e-06
2.40705e-05
-2.8411e-05
0.000337613
-6.20929e-05
-7.17829e-05
-6.20929e-05
-7.17829e-05
2.40705e-05
-1.68508e-05
-5.96892e-05
1.82071e-05
1.31525e-05
-1.55657e-05
1.82071e-05
2.85418e-05
-1.55657e-05
-1.6438e-06
0.0194364
0.0504078
0.00592366
0.0102411
0.0111264
0.0672896
0.0015087
0.0038456
0.0038456
0.0194363
-0.00410205
0.00592366
0.0015087
0.0038456
0.00124147
-0.00410205
0.00133154
0.001059
0.000291348
-0.00238448
0.001059
0.0111264
-0.00238448
0.0015087
-0.00238448
0.0015087
0.000275402
0.00124147
0.000291348
-0.00238448
0.000337613
0.000275402
0.000136846
-0.000402255
0.0001705
-0.00032819
-0.000402255
0.00133154
-0.00032819
0.000291348
-0.00032819
0.000291348
-2.8411e-05
0.000337613
0.0001705
-0.00032819
2.85417e-05
-2.8411e-05
5.04706e-05
0.000136846
-0.000108015
0.0001705
-0.000108015
0.0001705
1.82072e-05
2.85417e-05
0.00295182
0.0669006
0.001059
0.0111264
-0.00382114
0.00295182
0.00133154
0.001059
0.00141729
-0.00382114
-0.000402255
0.00133154
0.000324392
-0.00100019
3.88071e-05
-0.000669126
-0.00100019
-0.00122067
-0.000669126
-0.00151246
-0.00122067
0.00112105
-0.00151246
0.00147732
0.00112105
0.00326945
0.00147732
0.00282271
0.00326945
0.002596
0.00282271
0.00205295
0.002596
0.00119392
0.00205295
0.001239
0.00119392
0.00143988
0.001239
0.00144808
0.00143988
0.00212289
0.00144808
0.00173993
0.00212289
0.00175291
0.00173993
0.00159423
0.00175291
0.00131159
0.00159423
0.00135123
0.998405
0.998271
1.00103
1.00132
3.88071e-05
-0.000669126
0.000336769
-1.41979e-05
-0.000669126
-0.00151246
-1.41978e-05
-2.16996e-05
-0.00151246
0.00147732
-2.16984e-05
0.000226084
0.00147732
0.00282271
0.000226085
-0.000213389
0.00282271
0.00205295
-0.000213388
-0.000348799
0.00205295
0.001239
-0.000348799
0.00010701
0.001239
0.00144808
0.00010701
7.44281e-05
0.00144808
0.00173993
7.44283e-05
-0.000195843
0.00173993
0.00159423
-0.000195843
-3.77455e-05
-0.00131011
0.000336769
0.00295461
-0.00014459
0.000336769
-1.41979e-05
-0.00014459
-0.00142006
-1.4198e-05
-2.1699e-05
-0.00142006
-0.00545854
-0.00142006
-0.00545854
0.0044321
0.0152594
-0.00014459
-0.00142006
-0.00193358
0.0044321
-2.16984e-05
0.000226084
-0.00545854
0.00475624
0.000226084
-0.000213388
0.00475624
0.0067809
0.00475625
0.0067809
0.00599374
0.00584871
-0.00545854
0.00475624
0.0152594
0.00599374
-0.000213388
-0.000348799
0.0067809
0.0043167
-0.000348799
0.00010701
0.0043167
0.0032672
0.0043167
0.0032672
0.000431297
-9.89351e-05
0.0067809
0.0043167
0.00584872
0.000431297
0.00010701
7.44279e-05
0.0032672
0.00378392
7.44281e-05
-0.000195843
0.00378392
0.00382858
0.00378392
0.00382858
-0.000724499
-0.000390014
0.0032672
0.00378392
-9.89364e-05
-0.000724498
-0.000195843
-3.77455e-05
0.00382858
0.00386136
0.00382858
0.00386136
-0.000390014
-0.000844527
-0.000843244
-0.00193358
-0.00347123
0.0064907
-0.00193358
0.0044321
0.0064907
0.0119522
0.0044321
0.0152594
0.0119522
0.083364
0.0119522
0.0833639
0.296308
0.611625
0.0064907
0.0119522
0.0554864
0.296308
0.0152594
0.00599375
0.083364
0.304903
0.00599375
0.00584871
0.304903
0.3625
0.304903
0.3625
0.879611
0.921436
0.083364
0.304903
0.611626
0.879611
0.00584871
0.000431298
0.3625
0.284082
0.000431297
-9.89342e-05
0.284082
0.26298
0.284082
0.26298
0.898448
0.893844
0.3625
0.284082
0.921436
0.898448
-9.89364e-05
-0.000724497
0.26298
0.272102
-0.000724499
-0.000390015
0.272102
0.270402
0.272102
0.270402
0.897444
0.896889
0.26298
0.272102
0.893844
0.897444
-0.000390014
-0.000844526
0.270402
0.271693
0.270402
0.271693
0.896889
0.896925
0.0554864
0.296308
0.433471
0.878471
0.296308
0.611625
0.878471
0.958795
0.611626
0.879611
0.958795
0.987647
0.879611
0.921436
0.987647
0.986878
0.987647
0.986878
1.001
1.00074
0.958795
0.987647
0.988541
1.001
0.921436
0.898448
0.986878
0.993234
0.898448
0.893844
0.993234
0.992188
0.993234
0.992188
0.99972
0.998925
0.986879
0.993234
1.00074
0.99972
0.893844
0.897444
0.992188
0.993006
0.897444
0.896889
0.993006
0.992244
0.993006
0.992244
0.999344
0.999327
0.992188
0.993006
0.998925
0.999344
0.896889
0.896925
0.992244
0.993012
0.896925
0.893683
0.993012
0.992283
0.993012
0.992283
0.999182
0.999129
0.992244
0.993012
0.999328
0.999182
1.001
1.00074
1.00625
1.00645
1.00625
1.00645
0.997969
0.997046
1.00074
0.99972
0.997046
0.998377
0.99972
0.998925
0.998377
0.998562
0.998925
0.999344
0.998562
0.998405
0.999344
0.999327
0.998405
0.998271
0.997046
0.998377
1.00157
1.00132
0.998377
0.998562
1.00132
1.00069
1.00012
1.0017
0.999497
0.999517
1.0017
1.00157
0.999517
0.99901
1.00157
1.00132
0.99901
0.999214
1.00132
1.00069
0.999214
0.999646
0.999567
0.999328
0.999737
1.001
0.999328
0.999497
1.001
0.99998
0.999497
0.999517
0.99998
1.00003
0.999517
0.99901
1.00003
1.0006
0.99901
0.999646
1.0006
1.00006
1.00262
0.998579
1.00095
0.999768
0.998579
0.999737
0.999768
1.00001
0.999737
1.001
1.00001
1.00019
1.001
0.99998
1.00019
0.999844
0.99998
1.0006
0.999844
0.999992
1.0006
1.00006
0.999992
0.999944
1.00095
0.999768
0.999558
1.00156
0.999768
1.00001
1.00156
0.999326
1.00001
0.999844
0.999326
1.00027
0.999844
0.999992
1.00027
0.999595
0.999992
0.999944
0.999595
0.99987
0.0543434
0.433471
0.536555
0.868184
0.0204367
0.0543434
0.352868
0.536555
0.878471
0.958795
0.977116
0.988541
0.433471
0.878471
0.868184
0.977116
0.534138
0.896046
0.897207
0.973203
0.352868
0.536555
0.896046
0.944337
0.536555
0.868184
0.944337
0.98041
0.944337
0.98041
0.999063
0.996204
0.896046
0.944337
0.973203
0.999063
0.868184
0.977116
0.98041
1.00229
0.977116
0.988541
1.00229
1.00249
1.00229
1.00249
1.00304
0.999971
0.98041
1.00229
0.996204
1.00304
0.988541
1.001
1.00249
1.00625
1.00249
1.00625
0.999971
0.997969
0.0164615
0.347264
0.0412953
0.538417
0.0412953
0.538417
0.454113
0.87501
0.347264
0.897207
0.538417
0.950819
0.897207
0.973203
0.950819
0.996581
0.950819
0.996581
0.9802
0.996418
0.538417
0.950819
0.87501
0.9802
0.973203
0.999063
0.996581
1.01051
0.999063
0.996204
1.01051
0.996162
1.01051
0.996162
1.00005
0.999171
0.996581
1.01051
0.996418
1.00005
0.996204
1.00304
0.996162
0.998611
0.996162
0.998611
0.999171
1.00156
1.00304
0.999971
0.998611
0.997927
0.998611
0.997927
1.00156
1.00012
0.999971
0.997969
1.00012
1.0017
0.997969
0.997046
1.0017
1.00157
0.454113
0.87501
0.865602
0.976282
0.865602
0.976282
0.951653
0.988074
0.87501
0.9802
0.976282
1.00428
0.9802
0.996418
1.00428
0.99969
1.00428
0.99969
1.00433
0.997466
0.976282
1.00428
0.988074
1.00433
0.996418
1.00005
0.99969
0.997789
0.99969
0.997789
0.997466
1.00225
1.00005
0.999171
0.997789
1.00035
0.997789
1.00035
1.00225
0.999567
0.999171
1.00156
0.999567
0.999328
1.00156
1.00012
0.999328
0.999497
0.951653
0.988074
0.984313
1.00499
0.984313
1.00499
0.984351
1.0078
0.988074
1.00433
1.00499
0.999975
1.00499
0.999975
1.0078
0.99483
1.00433
0.997466
0.999975
0.998969
0.999975
0.998969
0.99483
1.00262
0.997466
1.00225
1.00262
0.998579
1.00225
0.999567
0.998579
0.999737
0.984351
1.0078
0.990269
1.00553
0.990268
1.00553
0.988151
1.00499
1.0078
0.99483
1.00553
0.995529
1.00553
0.995529
1.00499
0.998814
0.99483
1.00262
0.995529
1.00279
0.995529
1.00279
0.998814
1.00095
0.988151
1.00499
0.988882
1.00554
0.988882
1.00554
0.988086
1.00598
1.00499
0.998814
1.00554
0.997608
1.00554
0.997608
1.00598
0.996354