# vtk DataFile Version 2.0
Hex test
ASCII
DATASET UNSTRUCTURED_GRID
POINTS 10216 float
-18 14 0
-18 16 0
-14.1667 14 0
-14.1667 16 0
-18 16 0
-18 18 0
-14.1667 16 0
-14.1667 18 0
-18 18 0
-18 20 0
-14.1667 18 0
-14.1667 20 0
-18 20 0
-18 22 0
-14.1667 20 0
-14.1667 22 0
-18 22 0
-18 24 0
-14.1667 22 0
-14.1667 24 0
-18 24 0
-18 26 0
-14.1667 24 0
-14.1667 26 0
-18 26 0
-18 28 0
-14.1667 26 0
-14.1667 28 0
-18 28 0
-18 30 0
-14.1667 28 0
-14.1667 30 0
-14.1667 14 0
-14.1667 16 0
-12 14 0
-12 16 0
-14.1667 16 0
-14.1667 18 0
-12 16 0
-12 18 0
-14.1667 18 0
-14.1667 20 0
-12 18 0
-12 20 0
-14.1667 20 0
-14.1667 22 0
-12 20 0
-12 22 0
-14.1667 22 0
-14.1667 24 0
-12 22 0
-12 24 0
-14.1667 24 0
-14.1667 26 0
-12 24 0
-12 26 0
-14.1667 26 0
-14.1667 28 0
-12 26 0
-12 28 0
-14.1667 28 0
-14.1667 30 0
-12 28 0
-12 30 0
-12 14 0
-12 16 0
-10 14 0
-10 16 0
-12 16 0
-12 18 0
-10 16 0
-10 18 0
-12 18 0
-12 20 0
-10 18 0
-10 20 0
-12 20 0
-12 22 0
-10 20 0
-10 22 0
-12 22 0
-12 24 0
-10 22 0
-10 24 0
-12 24 0
-12 26 0
-10 24 0
-10 26 0
-12 26 0
-12 28 0
-10 26 0
-10 28 0
-12 28 0
-12 30 0
-10 28 0
-10 30 0
-10 14 0
-10 16 0
-8 14 0
-8 16 0
-10 16 0
-10 18 0
-8 16 0
-8 18 0
-10 18 0
-10 20 0
-8 18 0
-8 20 0
-10 20 0
-10 22 0
-8 20 0
-8 22 0
-10 22 0
-10 24 0
-8 22 0
-8 24 0
-10 24 0
-10 26 0
-8 24 0
-8 26 0
-10 26 0
-10 28 0
-8 26 0
-8 28 0
-10 28 0
-10 30 0
-8 28 0
-8 30 0
-8 14 0
-8 16 0
-6 14 0
-6 16 0
-8 16 0
-8 18 0
-6 16 0
-6 18 0
-8 18 0
-8 20 0
-6 18 0
-6 20 0
-8 20 0
-8 22 0
-6 20 0
-6 22 0
-8 22 0
-8 24 0
-6 22 0
-6 24 0
-8 24 0
-8 26 0
-6 24 0
-6 26 0
-8 26 0
-8 28 0
-6 26 0
-6 28 0
-8 28 0
-8 30 0
-6 28 0
-6 30 0
-6 14 0
-6 16 0
-4 14 0
-4 16 0
-6 16 0
-6 18 0
-4 16 0
-4 18 0
-6 18 0
-6 20 0
-4 18 0
-4 20 0
-6 20 0
-6 22 0
-4 20 0
-4 22 0
-6 22 0
-6 24 0
-4 22 0
-4 24 0
-6 24 0
-6 26 0
-4 24 0
-4 26 0
-6 26 0
-6 28 0
-4 26 0
-4 28 0
-6 28 0
-6 30 0
-4 28 0
-4 30 0
-4 14 0
-4 15 0
-2 14 0
-2 15 0
-4 15 0
-4 16 0
-2 15 0
-2 16 0
-4 16 0
-4 17 0
-2 16 0
-2 17 0
-4 17 0
-4 18 0
-2 17 0
-2 18 0
-4 18 0
-4 19 0
-2 18 0
-2 19 0
-4 19 0
-4 20 0
-2 19 0
-2 20 0
-4 20 0
-4 22 0
-2 20 0
-2 22 0
-4 22 0
-4 24 0
-2 22 0
-2 24 0
-4 24 0
-4 26 0
-2 24 0
-2 26 0
-4 26 0
-4 28 0
-2 26 0
-2 28 0
-4 28 0
-4 30 0
-2 28 0
-2 30 0
-2 14 0
-2 15 0
-2.08167e-17 14 0
1.11022e-16 15 0
-2 15 0
-2 16 0
1.11022e-16 15 0
-4.16334e-17 16 0
-2 16 0
-2 17 0
-2.08167e-17 16 0
1.11022e-16 17 0
-2 17 0
-2 18 0
1.11022e-16 17 0
-4.85723e-17 18 0
-2 18 0
-2 19 0
-2.08167e-17 18 0
5.55112e-17 19 0
-2 19 0
-2 20 0
5.55112e-17 19 0
-8.32667e-17 20 0
-2 20 0
-2 22 0
-8.32667e-17 20 0
-6.93889e-17 22 0
-2 22 0
-2 24 0
-4.16334e-17 22 0
-5.55112e-17 24 0
-2 24 0
-2 26 0
-2.77556e-17 24 0
-6.93889e-17 26 0
-2 26 0
-2 28 0
-8.32667e-17 26 0
-5.55112e-17 28 0
-2 28 0
-2 29 0
-6.245e-17 28 0
6.245e-17 29 0
-2 29 0
-2 30 0
6.245e-17 29 0
-5.55112e-17 30 0
0 20 0
-6.93889e-18 21 0
2 20 0
2 21 0
-6.93889e-18 21 0
-2.77556e-17 22 0
2 21 0
2 22 0
-4.16334e-17 22 0
2.94903e-17 23 0
2 22 0
2 23 0
2.94903e-17 23 0
2.77556e-17 24 0
2 23 0
2 24 0
2.77556e-17 24 0
2.94903e-17 25 0
2 24 0
2 25 0
2.94903e-17 25 0
-4.16334e-17 26 0
2 25 0
2 26 0
-2.77556e-17 26 0
-6.93889e-18 27 0
2 26 0
2 27 0
-6.93889e-18 27 0
0 28 0
2 27 0
2 28 0
-6.93889e-18 28 0
3.1225e-17 29 0
2 28 0
2 29 0
3.1225e-17 29 0
2.77556e-17 30 0
2 29 0
2 30 0
2 20 0
2 21 0
4 20 0
4 21 0
2 21 0
2 22 0
4 21 0
4 22 0
2 22 0
2 23 0
4 22 0
4 23 0
2 23 0
2 24 0
4 23 0
4 24 0
2 24 0
2 25 0
4 24 0
4 25 0
2 25 0
2 26 0
4 25 0
4 26 0
2 26 0
2 27 0
4 26 0
4 27 0
2 27 0
2 28 0
4 27 0
4 28 0
3.46945e-17 14 0
5.89806e-17 15 0
2 14 0
2 15 0
3.46945e-17 15 0
3.46945e-17 16 0
2 15 0
2 16 0
3.46945e-17 16 0
5.89806e-17 17 0
2 16 0
2 17 0
3.46945e-17 17 0
2.77556e-17 18 0
2 17 0
2 18 0
3.46945e-17 18 0
1.04083e-17 19 0
2 18 0
2 19 0
-2.08167e-17 19 0
-6.93889e-18 20 0
2 19 0
2 20 0
10 19 0
10 20 0
11 19 0
11 20 0
8 22 0
8 23 0
9 22 0
9 23 0
8 20 0
8 21 0
9 20 0
9 21 0
8 21 0
8 22 0
9 21 0
9 22 0
9 21 0
9 22 0
10 21 0
10 22 0
9 20 0
9 21 0
10 20 0
10 21 0
8 18 0
8 19 0
9 18 0
9 19 0
8 19 0
8 20 0
9 19 0
9 20 0
9 19 0
9 20 0
10 19 0
10 20 0
9 18 0
9 19 0
10 18 0
10 19 0
8 16 0
8 17 0
9 16 0
9 17 0
8 17 0
8 18 0
9 17 0
9 18 0
2 14 0
2 15 0
3 14 0
3 15 0
2 15 0
2 16 0
3 15 0
3 16 0
3 15 0
3 16 0
4 15 0
4 16 0
3 14 0
3 15 0
4 14 0
4 15 0
2 16 0
2 17 0
3 16 0
3 17 0
2 17 0
2 18 0
3 17 0
3 18 0
3 17 0
3 18 0
4 17 0
4 18 0
3 16 0
3 17 0
4 16 0
4 17 0
2 18 0
2 19 0
3 18 0
3 19 0
3 18 0
3 19 0
4 18 0
4 19 0
2 19 0
2 20 0
3 19 0
3 20 0
3 19 0
3 20 0
4 19 0
4 20 0
2 28 0
2 29 0
4 28 0
4 29 0
2 29 0
2 30 0
4 29 0
4 30 0
6 26 0
6 27 0
7 26 0
7 27 0
6 24 0
6 25 0
7 24 0
7 25 0
6 25 0
6 26 0
7 25 0
7 26 0
7 24 0
7 25 0
8 24 0
8 25 0
6 22 0
6 23 0
7 22 0
7 23 0
6 23 0
6 24 0
7 23 0
7 24 0
7 23 0
7 24 0
8 23 0
8 24 0
7 22 0
7 23 0
8 22 0
8 23 0
6 20 0
6 21 0
7 20 0
7 21 0
6 21 0
6 22 0
7 21 0
7 22 0
7 21 0
7 22 0
8 21 0
8 22 0
7 20 0
7 21 0
8 20 0
8 21 0
6 18 0
6 19 0
7 18 0
7 19 0
6 19 0
6 20 0
7 19 0
7 20 0
7 19 0
7 20 0
8 19 0
8 20 0
7 18 0
7 19 0
8 18 0
8 19 0
6 16 0
6 17 0
7 16 0
7 17 0
6 17 0
6 18 0
7 17 0
7 18 0
7 17 0
7 18 0
8 17 0
8 18 0
7 16 0
7 17 0
8 16 0
8 17 0
4 14 0
4 15 0
5 14 0
5 15 0
4 15 0
4 16 0
5 15 0
5 16 0
5 15 0
5 16 0
6 15 0
6 16 0
5 14 0
5 15 0
6 14 0
6 15 0
4 16 0
4 17 0
5 16 0
5 17 0
4 17 0
4 18 0
5 17 0
5 18 0
5 17 0
5 18 0
6 17 0
6 18 0
5 16 0
5 17 0
6 16 0
6 17 0
4 18 0
4 19 0
5 18 0
5 19 0
5 18 0
5 19 0
6 18 0
6 19 0
4 19 0
4 20 0
5 19 0
5 20 0
5 19 0
5 20 0
6 19 0
6 20 0
4 20 0
4 21 0
6 20 0
6 21 0
4 21 0
4 22 0
6 21 0
6 22 0
4 22 0
4 23 0
6 22 0
6 23 0
4 23 0
4 24 0
6 23 0
6 24 0
4 24 0
4 25 0
6 24 0
6 25 0
4 25 0
4 26 0
6 25 0
6 26 0
4 26 0
4 27 0
6 26 0
6 27 0
4 27 0
4 28 0
6 27 0
6 28 0
4 28 0
4 29 0
5 28 0
5 29 0
5 28 0
5 29 0
6 28 0
6 29 0
6 15 0
6 16 0
7 15 0
7 16 0
14 20 0
14 21 0
16 20 0
16 21 0
14 21 0
14 22 0
16 21 0
16 22 0
14 22 0
14 23 0
16 22 0
16 23 0
14 23 0
14 24 0
16 23 0
16 24 0
14 24 0
14 25 0
16 24 0
16 25 0
14 25 0
14 26 0
16 25 0
16 26 0
14 26 0
14 27 0
16 26 0
16 27 0
14 27 0
14 28 0
16 27 0
16 28 0
14 28 0
14 29 0
16 28 0
16 29 0
14 29 0
14 30 0
16 29 0
16 30 0
14 30 0
14 31 0
16 30 0
16 31 0
14 31 0
14 32 0
16 31 0
16 32 0
14 32 0
14 33 0
16 32 0
16 33 0
14 33 0
14 34 0
16 33 0
16 34 0
16 20 0
16 21 0
18 20 0
18 21 0
16 21 0
16 22 0
18 21 0
18 22 0
16 22 0
16 23 0
18 22 0
18 23 0
16 23 0
16 24 0
18 23 0
18 24 0
16 24 0
16 25 0
18 24 0
18 25 0
16 25 0
16 26 0
18 25 0
18 26 0
16 26 0
16 27 0
18 26 0
18 27 0
16 27 0
16 28 0
18 27 0
18 28 0
16 28 0
16 29 0
18 28 0
18 29 0
16 29 0
16 30 0
18 29 0
18 30 0
16 30 0
16 31 0
18 30 0
18 31 0
16 31 0
16 32 0
18 31 0
18 32 0
16 32 0
16 33 0
18 32 0
18 33 0
16 33 0
16 34 0
18 33 0
18 34 0
16 34 0
16 35 0
18 34 0
18 35 0
16 35 0
16 36 0
18 35 0
18 36 0
18 22 0
18 24 0
20 22 0
20 24 0
18 24 0
18 26 0
20 24 0
20 26 0
18 26 0
18 28 0
20 26 0
20 28 0
18 28 0
18 30 0
20 28 0
20 30 0
18 30 0
18 32 0
20 30 0
20 32 0
18 32 0
18 34 0
20 32 0
20 34 0
18 34 0
18 35 0
20 34 0
20 35 0
18 35 0
18 36 0
20 35 0
20 36 0
20 22 0
20 24 0
22 22 0
22 24 0
20 24 0
20 26 0
22 24 0
22 26 0
20 26 0
20 28 0
22 26 0
22 28 0
20 28 0
20 30 0
22 28 0
22 30 0
20 30 0
20 32 0
22 30 0
22 32 0
20 32 0
20 34 0
22 32 0
22 34 0
20 34 0
20 36 0
22 34 0
22 36 0
22 24 0
22 26 0
24 24 0
24 26 0
22 26 0
22 28 0
24 26 0
24 28 0
22 28 0
22 30 0
24 28 0
24 30 0
22 30 0
22 32 0
24 30 0
24 32 0
18 36 0
18 37 0
19 36 0
19 37 0
19 36 0
19 37 0
20 36 0
20 37 0
16 36 0
16 37 0
17 36 0
17 37 0
17 36 0
17 37 0
18 36 0
18 37 0
14 36 0
14 37 0
15 36 0
15 37 0
15 36 0
15 37 0
16 36 0
16 37 0
14 37 0
14 38 0
15 37 0
15 38 0
15 37 0
15 38 0
16 37 0
16 38 0
14 34 0
14 35 0
16 34 0
16 35 0
14 35 0
14 36 0
16 35 0
16 36 0
12 36 0
12 37 0
13 36 0
13 37 0
12 37 0
12 38 0
13 37 0
13 38 0
13 37 0
13 38 0
14 37 0
14 38 0
13 36 0
13 37 0
14 36 0
14 37 0
12 34 0
12 35 0
13 34 0
13 35 0
13 34 0
13 35 0
14 34 0
14 35 0
12 35 0
12 36 0
13 35 0
13 36 0
13 35 0
13 36 0
14 35 0
14 36 0
12 32 0
12 33 0
14 32 0
14 33 0
12 33 0
12 34 0
14 33 0
14 34 0
12 30 0
12 31 0
14 30 0
14 31 0
12 31 0
12 32 0
14 31 0
14 32 0
12 28 0
12 29 0
14 28 0
14 29 0
12 29 0
12 30 0
14 29 0
14 30 0
12 26 0
12 27 0
14 26 0
14 27 0
12 27 0
12 28 0
14 27 0
14 28 0
12 24 0
12 25 0
14 24 0
14 25 0
12 25 0
12 26 0
14 25 0
14 26 0
12 22 0
12 23 0
14 22 0
14 23 0
12 23 0
12 24 0
14 23 0
14 24 0
12 20 0
12 21 0
14 20 0
14 21 0
12 21 0
12 22 0
14 21 0
14 22 0
10 36 0
10 37 0
11 36 0
11 37 0
11 37 0
11 38 0
12 37 0
12 38 0
11 36 0
11 37 0
12 36 0
12 37 0
10 34 0
10 35 0
11 34 0
11 35 0
10 35 0
10 36 0
11 35 0
11 36 0
11 35 0
11 36 0
12 35 0
12 36 0
11 34 0
11 35 0
12 34 0
12 35 0
10 32 0
10 33 0
11 32 0
11 33 0
10 33 0
10 34 0
11 33 0
11 34 0
11 33 0
11 34 0
12 33 0
12 34 0
11 32 0
11 33 0
12 32 0
12 33 0
10 30 0
10 31 0
11 30 0
11 31 0
10 31 0
10 32 0
11 31 0
11 32 0
11 31 0
11 32 0
12 31 0
12 32 0
11 30 0
11 31 0
12 30 0
12 31 0
10 28 0
10 29 0
11 28 0
11 29 0
10 29 0
10 30 0
11 29 0
11 30 0
11 29 0
11 30 0
12 29 0
12 30 0
11 28 0
11 29 0
12 28 0
12 29 0
10 26 0
10 27 0
11 26 0
11 27 0
10 27 0
10 28 0
11 27 0
11 28 0
11 27 0
11 28 0
12 27 0
12 28 0
11 26 0
11 27 0
12 26 0
12 27 0
10 24 0
10 25 0
11 24 0
11 25 0
10 25 0
10 26 0
11 25 0
11 26 0
11 25 0
11 26 0
12 25 0
12 26 0
11 24 0
11 25 0
12 24 0
12 25 0
10 22 0
10 23 0
11 22 0
11 23 0
10 23 0
10 24 0
11 23 0
11 24 0
11 23 0
11 24 0
12 23 0
12 24 0
11 22 0
11 23 0
12 22 0
12 23 0
10 21 0
10 22 0
11 21 0
11 22 0
11 21 0
11 22 0
12 21 0
12 22 0
9 36 0
9 37 0
10 36 0
10 37 0
8 34 0
8 35 0
9 34 0
9 35 0
8 35 0
8 36 0
9 35 0
9 36 0
9 35 0
9 36 0
10 35 0
10 36 0
9 34 0
9 35 0
10 34 0
10 35 0
8 32 0
8 33 0
9 32 0
9 33 0
8 33 0
8 34 0
9 33 0
9 34 0
9 33 0
9 34 0
10 33 0
10 34 0
9 32 0
9 33 0
10 32 0
10 33 0
8 30 0
8 31 0
9 30 0
9 31 0
8 31 0
8 32 0
9 31 0
9 32 0
9 31 0
9 32 0
10 31 0
10 32 0
9 30 0
9 31 0
10 30 0
10 31 0
8 28 0
8 29 0
9 28 0
9 29 0
8 29 0
8 30 0
9 29 0
9 30 0
9 29 0
9 30 0
10 29 0
10 30 0
9 28 0
9 29 0
10 28 0
10 29 0
8 26 0
8 27 0
9 26 0
9 27 0
8 27 0
8 28 0
9 27 0
9 28 0
9 27 0
9 28 0
[...]
POINT_DATA 10216
SCALARS phi float 1
LOOKUP_TABLE default
3.86255e-06
-1.66277e-06
4.94963e-06
-1.82293e-06
-1.66277e-06
3.51153e-07
-1.82293e-06
3.06364e-06
3.51153e-07
-3.12667e-06
3.06364e-06
2.57351e-07
-3.12667e-06
-3.35248e-06
2.57351e-07
2.10719e-06
-3.35248e-06
-2.47014e-06
2.10719e-06
1.22465e-06
-2.47014e-06
-2.97684e-06
1.22465e-06
1.67574e-06
-2.97684e-06
-3.04969e-06
1.67573e-06
1.33525e-06
-3.04969e-06
2.15978e-06
1.33525e-06
4.23499e-06
4.94963e-06
-1.82293e-06
-4.61691e-06
2.27294e-06
-1.82293e-06
3.06364e-06
2.27294e-06
2.6846e-06
3.06364e-06
2.5735e-07
2.6846e-06
9.23304e-06
2.57351e-07
2.10719e-06
9.23304e-06
1.20641e-05
2.10719e-06
1.22465e-06
1.20641e-05
8.49303e-06
1.22465e-06
1.67573e-06
8.49303e-06
1.04849e-05
1.67573e-06
1.33525e-06
1.04849e-05
1.02765e-05
1.33525e-06
4.23499e-06
1.02765e-05
-1.14289e-06
-4.61691e-06
2.27294e-06
5.38479e-06
-3.63017e-06
2.27294e-06
2.6846e-06
-3.63017e-06
-1.10031e-05
2.6846e-06
9.23304e-06
-1.10031e-05
-2.32454e-05
9.23304e-06
1.20641e-05
-2.32454e-05
-3.24633e-05
1.20641e-05
8.49303e-06
-3.24633e-05
-2.24271e-05
8.49303e-06
1.04849e-05
-2.24271e-05
-2.79529e-05
1.04849e-05
1.02765e-05
-2.79529e-05
-2.73202e-05
1.02765e-05
-1.14289e-06
-2.73202e-05
-3.26827e-06
5.38479e-06
-3.63017e-06
-9.00223e-06
7.64327e-06
-3.63017e-06
-1.10031e-05
7.64327e-06
2.23985e-05
-1.10031e-05
-2.32454e-05
2.23985e-05
4.31743e-05
-2.32454e-05
-3.24633e-05
4.31743e-05
6.72385e-05
-3.24633e-05
-2.24271e-05
6.72385e-05
4.65963e-05
-2.24271e-05
-2.79529e-05
4.65963e-05
5.80135e-05
-2.79529e-05
-2.73202e-05
5.80135e-05
5.2151e-05
-2.73202e-05
-3.26827e-06
5.2151e-05
9.23442e-06
-9.00223e-06
7.64326e-06
2.35575e-05
-1.38871e-05
7.64326e-06
2.23985e-05
-1.38871e-05
-2.6665e-05
2.23985e-05
4.31743e-05
-2.6665e-05
-6.38923e-05
4.31743e-05
6.72385e-05
-6.38923e-05
-8.58072e-05
6.72385e-05
4.65963e-05
-8.58072e-05
-6.03779e-05
4.65963e-05
5.80135e-05
-6.03779e-05
-7.47878e-05
5.80135e-05
5.2151e-05
-7.47878e-05
-7.37995e-05
5.2151e-05
9.23442e-06
-7.37995e-05
-4.1461e-06
2.35575e-05
-1.38871e-05
-4.41828e-05
2.5478e-05
-1.38871e-05
-2.6665e-05
2.5478e-05
5.27999e-05
-2.6665e-05
-6.38923e-05
5.27999e-05
0.000121728
-6.38923e-05
-8.58072e-05
0.000121728
0.000158982
-8.58072e-05
-6.03779e-05
0.000158982
0.000111236
-6.03779e-05
-7.47878e-05
0.000111236
0.000137112
-7.47878e-05
-7.37995e-05
0.000137112
0.000140243
-7.37995e-05
-4.1461e-06
0.000140243
9.27824e-06
-4.41828e-05
-2.00022e-05
5.3373e-05
3.94046e-05
-2.00022e-05
2.5478e-05
3.94046e-05
-0.000124998
2.5478e-05
4.31108e-05
-0.000124998
7.41913e-06
4.31108e-05
5.27999e-05
7.41913e-06
-1.68184e-05
5.27999e-05
8.2301e-05
-1.68184e-05
-0.000113908
8.2301e-05
0.000121728
-0.000113908
-0.000228648
0.000121728
0.000158982
-0.000228648
-0.000304121
0.000158982
0.000111236
-0.000304121
-0.000206769
0.000111236
0.000137112
-0.000206769
-0.00025888
0.000137112
0.000140243
-0.00025888
-0.000267235
0.000140243
9.27823e-06
-0.000267235
-2.45836e-05
5.3373e-05
3.94046e-05
-0.000230789
-0.000257602
3.94046e-05
-0.000124998
-0.000257602
-3.39089e-06
-0.000124998
7.41911e-06
-3.39089e-06
0.000422356
7.41911e-06
-1.68184e-05
0.000422356
0.000430469
-1.68184e-05
-0.000113908
0.000430469
0.0004466
-0.000113908
-0.000228648
0.0004466
0.000430949
-0.000228648
-0.000304121
0.000430949
0.000564292
-0.000304121
-0.000206769
0.000564292
0.000390348
-0.000206769
-0.00025888
0.000390348
0.000508769
-0.00025888
-0.000267235
0.000508769
0.000471015
-0.000267235
-0.000167743
0.000471015
0.000370084
-0.000167743
-2.45836e-05
0.000370084
0.000221753
0.000430949
0.00050477
-0.000788272
-0.000818039
0.00050477
0.000564292
-0.000818039
-0.00105741
0.000564292
0.00048317
-0.00105741
-0.000944386
0.00048317
0.000390348
-0.000944386
-0.000725424
0.000390348
0.000424617
-0.000725424
-0.000744836
0.000424617
0.00050877
-0.000744836
-0.000960712
0.00050877
0.00053274
-0.000960712
-0.000958381
0.00053274
0.000471015
-0.000958381
-0.000943247
0.000471015
0.000370084
-0.000943247
-0.000409717
0.000370084
0.000221753
-0.000409717
0.000267645
-0.000788272
-0.000818038
0.00116581
0.00175048
-0.000818038
-0.00105741
0.00175048
0.0016047
-0.00105741
-0.000944386
0.0016047
0.00140198
-0.000944386
-0.000725424
0.00140198
0.00124654
-0.000725424
-0.000744837
0.00124654
0.00124715
-0.000744837
-0.000960712
0.00124715
0.00136504
-0.000960712
-0.000958382
0.00136504
0.00168881
-0.000958382
-0.000943247
0.00168881
0.00155736
-0.000230789
-0.000257602
-0.000171126
-8.77903e-05
-0.000257602
-3.39089e-06
-8.77903e-05
5.24818e-05
-3.39088e-06
0.000422356
5.24819e-05
0.000419147
0.000422356
0.000430469
0.000419147
0.000406123
0.000430469
0.0004466
0.000406123
-0.00040379
0.0004466
0.000430949
-0.00040379
-0.000788272
0.988636
0.987126
0.999438
0.998582
0.038171
0.0256098
0.465763
0.399748
0.135911
0.0779797
0.760844
0.632098
0.0779797
0.038171
0.632098
0.465763
0.632098
0.465763
0.976625
0.949585
0.760844
0.632098
0.987126
0.976625
0.103728
0.157693
0.691953
0.795162
0.157693
0.135911
0.795162
0.760844
0.795162
0.760844
0.988636
0.987126
0.691953
0.795162
0.980877
0.988636
0.0181194
0.036076
0.171115
0.430842
0.036076
0.103728
0.430842
0.691953
-0.000171126
-8.77903e-05
-0.000231874
0.000380546
-8.77903e-05
5.24819e-05
0.000380546
-1.4377e-05
0.000380546
-1.4377e-05
0.000597995
-6.21729e-05
-0.000231874
0.000380546
-0.000158461
0.000597995
5.24818e-05
0.000419147
-1.4377e-05
0.00198334
0.000419147
0.000406123
0.00198334
0.00222674
0.00198334
0.00222674
0.00023516
3.01418e-05
-1.4377e-05
0.00198334
-6.2173e-05
0.00023516
0.000406123
-0.00040379
0.00222674
0.00102352
0.00222674
0.00102352
3.01418e-05
0.000805698
-0.00040379
-0.000788272
0.00102352
0.00121602
0.00102352
0.00121602
0.000805698
0.00116581
-0.000943247
-0.000409717
0.00155736
0.000784828
-0.000409717
0.000267645
0.000784828
-0.000223522
0.00074581
0.00117354
0.00595236
0.00843837
0.00078905
0.000777702
0.00586509
0.0057117
0.000777702
0.00074581
0.0057117
0.00595236
0.00586509
0.0057117
0.0242949
0.0222072
0.000927935
0.000783794
0.00742289
0.00611107
0.000783794
0.000789051
0.00611107
0.00586509
0.00611107
0.00586509
0.0256098
0.0242949
0.00742289
0.00611107
0.038171
0.0256098
0.000912158
0.00131985
0.00993273
0.009304
0.00131985
0.000927935
0.009304
0.00742289
0.009304
0.00742289
0.0779797
0.038171
0.00993273
0.009304
0.135911
0.0779797
-0.00592219
-0.00073935
0.0118537
0.00959623
-0.00073935
0.000912159
0.00959623
0.00993273
0.00959623
0.00993273
0.157693
0.135911
0.0118537
0.00959623
0.103728
0.157693
0.000912662
-0.00590483
0.00225236
0.00575544
-0.00590483
-0.00592219
0.00575544
0.0118537
0.00575544
0.0118537
0.036076
0.103728
0.00225236
0.00575544
0.0181194
0.036076
-0.000158461
0.000597995
-0.0141856
0.00589897
0.000597995
-6.21729e-05
0.00589897
-0.00446862
0.00589897
-0.00446862
-0.000466208
0.000912663
-0.0141856
0.00589897
0.00124189
-0.000466208
-6.21728e-05
0.00023516
-0.00446862
-0.00135636
0.00023516
3.01419e-05
-0.00135636
-0.00364252
-0.00135636
-0.00364252
-0.00590483
-0.00592219
-0.00446862
-0.00135636
0.000912662
-0.00590483
3.01418e-05
0.000805698
-0.00364252
-0.00198593
-0.00364252
-0.00198593
-0.00592219
-0.00073935
0.000805698
0.00116581
-0.00198593
-0.00299946
-0.00198593
-0.00299946
-0.00073935
0.000912159
0.00116581
0.00175048
0.000912159
0.00131985
0.00175048
0.0016047
0.00131985
0.000927936
0.0016047
0.00140198
0.000927935
0.000783794
0.00140198
0.00124654
0.000783793
0.00078905
0.00124654
0.00124715
0.00078905
0.000777702
0.00124715
0.00136504
0.000777702
0.00074581
0.00136504
0.00168881
0.00074581
0.00117354
0.00168881
0.00155737
0.00117354
0.00108357
0.00155737
0.000784828
-0.00376997
-0.00308663
-0.00376997
-0.00308663
0.00108357
-0.0011323
-0.000466208
0.000912663
-0.00773371
0.00225236
0.999886
0.999191
0.99992
1.00024
0.999191
0.998773
1.00024
1.00086
0.998773
0.998752
1.00086
1.0009
0.998752
0.998902
1.0009
1.00069
0.998902
0.99877
1.00069
1.00087
0.99877
0.998708
1.00087
1.0009
0.998708
0.998844
1.0009
1.00037
0.998844
0.9995
1.00037
1.00021
0.9995
0.999644
1.00021
1.00033
0.999644
0.99899
1.00033
1.00033
0.99899
0.998272
1.00033
1.0009
0.998272
0.998267
1.0009
1.00038
0.998267
1.00014
1.00038
0.998856
1.00014
1.00148
0.998856
0.999317
0.999921
1.00024
1.00009
0.999867
1.00024
1.00086
0.999867
0.999515
1.00086
1.0009
0.999515
0.999463
1.0009
1.00069
0.999463
0.999565
1.00069
1.00087
0.999565
0.999592
1.00087
1.0009
0.999592
0.99957
1.0009
1.00037
0.99957
0.999593
1.00037
1.00021
0.999593
0.999772
1.00021
1.00033
0.999772
1.00009
1.00033
1.00033
1.00009
0.999989
1.00033
1.0009
0.999989
0.999204
1.0009
1.00038
0.999204
0.999094
1.00038
0.998856
0.999094
1.00046
0.998856
0.999317
1.00046
1.00026
0.999317
1.00209
1.00026
0.996991
1.00209
0.994877
0.996991
0.999794
0.999515
0.999565
1.00018
1.00021
0.999565
0.99957
1.00021
1.00017
0.99957
0.999772
1.00017
1.0001
0.999772
0.999989
1.0001
0.999936
0.999989
0.999094
0.999936
1.00038
0.999094
1.00026
1.00038
0.999577
1.00026
0.996991
0.999577
1.00201
0.996991
0.999794
1.00201
0.999602
1.00018
1.00021
0.999995
1.00005
1.00021
1.00017
1.00005
0.99981
1.00017
1.0001
0.99981
1.0004
1.0001
0.999936
1.0004
0.999421
0.999936
1.00038
0.999421
1.00095
1.00038
0.999577
1.00095
0.997942
0.999577
0.999602
0.997942
0.998485
1.00005
0.99981
0.999892
0.999716
0.99981
1.0004
0.999716
1.00006
1.0004
0.999421
1.00006
0.999317
0.999421
1.00095
0.999317
1.00087
0.999794
1.00394
1.00003
1.00115
1.00003
1.00115
0.999602
0.995686
0.994877
0.973135
0.998386
0.992095
0.998386
0.992095
0.999794
1.00394
0.958193
0.725223
0.985829
0.904891
0.985829
0.904891
0.994877
0.973135
0.725223
0.210554
0.904891
0.527803
0.904891
0.527803
0.973135
0.853317
1.00148
0.991877
0.999317
1.00209
0.991877
0.958193
1.00209
0.994877
0.662646
0.158315
0.861436
0.404728
0.158315
0.0154009
0.404728
0.0740253
0.404728
0.0740253
0.725223
0.210554
0.861436
0.404728
0.958193
0.725223
0.950607
0.886868
0.999629
0.98029
0.999629
0.98029
1.00148
0.991877
0.886868
0.662646
0.98029
0.861436
0.98029
0.861436
0.991877
0.958193
0.996016
0.983431
0.998267
1.00014
0.983431
0.950607
1.00014
1.00148
0.999006
0.998328
0.99899
0.998272
0.998328
0.996016
0.998272
0.998267
0.999606
0.999837
0.9995
0.999644
0.999837
0.999006
0.999644
0.99899
0.998345
0.998685
0.998708
0.998844
0.998685
0.999606
0.998844
0.9995
0.998204
0.99832
0.998902
0.99877
0.99832
0.998345
0.99877
0.998708
0.998511
0.998361
0.998773
0.998752
0.998361
0.998204
0.998752
0.998902
0.999776
0.999088
0.999886
0.999191
0.999088
0.998511
0.999191
0.998773
0.628524
0.576361
0.684404
0.500338
0.500338
0.172223
0.158315
0.0154009
0.684404
0.500338
0.662646
0.158315
0.595606
0.586021
0.796373
0.728545
0.586021
0.628524
0.728545
0.684404
0.728545
0.684404
0.886868
0.662646
0.796373
0.728545
0.950607
0.886868
0.872534
0.81727
0.979117
0.928821
0.81727
0.595605
0.928821
0.796373
0.928821
0.796373
0.983431
0.950607
0.979117
0.928821
0.996016
0.983431
0.966515
0.914639
0.993088
0.99006
0.914639
0.872534
0.99006
0.979117
0.99006
0.979117
0.998328
0.996016
0.993088
0.990061
0.999006
0.998328
0.984472
0.987062
0.996916
0.998274
0.987062
0.966515
0.998274
0.993088
0.998274
0.993088
0.999837
0.999006
0.996916
0.998274
0.999606
0.999837
0.931051
0.960165
0.990719
0.992565
0.960164
0.984472
0.992565
0.996916
0.992565
0.996916
0.998685
0.999606
0.990719
0.992565
0.998345
0.998685
0.931625
0.927582
0.990706
0.990674
0.927582
0.931051
0.990674
0.990719
0.990674
0.990719
0.99832
0.998345
0.990706
0.990674
0.998204
0.99832
0.949585
0.933813
0.991504
0.990872
0.933813
0.931625
0.990872
0.990706
0.990872
0.990706
0.998361
0.998204
0.991504
0.990872
0.998511
0.998361
0.976625
0.949585
0.994557
0.991504
0.994557
0.991504
0.999088
0.998511
0.578612
0.498873
0.628524
0.576361
0.419459
0.437845
0.656548
0.615371
0.437845
0.377704
0.615371
0.578612
0.615371
0.578612
0.586021
0.628524
0.656548
0.615371
0.595605
0.586021
0.0158708
0.202423
0.297702
0.620295
0.202423
0.419459
0.620295
0.656548
0.620295
0.656548
0.81727
0.595606
0.297702
0.620295
0.872534
0.81727
0.0599595
0.0284499
0.572163
0.360144
0.0284499
0.0158708
0.360144
0.297702
0.360144
0.297702
0.914639
0.872534
0.572164
0.360144
0.966515
0.914639
0.10892
0.127552
0.713306
0.749699
0.127552
0.0599595
0.7497
0.572164
0.7497
0.572164
0.987062
0.966515
0.713306
0.749699
0.984472
0.987062
0.0248966
0.0503982
0.390219
0.52689
0.0503982
0.10892
0.52689
0.713306
0.52689
0.713306
0.960165
0.984472
0.390219
0.52689
0.931051
0.960165
0.0242949
0.0222072
0.386417
0.378176
0.0222072
0.0248966
0.378176
0.390219
0.378176
0.390219
0.927582
0.931051
0.386417
0.378176
0.931625
0.927582
0.0256098
0.0242949
0.399748
0.386417
0.399748
0.386417
0.933813
0.931625
0.465763
0.399748
0.949585
0.933813
0.0200874
0.0235193
0.0227555
0.0240748
0.0240748
0.077761
0.437845
0.377704
0.0227555
0.0240748
0.419459
0.437845
-0.00257751
0.00118382
0.00264125
0.0213167
0.00118382
0.0200874
0.0213167
0.0227555
0.0213167
0.0227555
0.202423
0.419459
0.00264125
0.0213167
0.0158708
0.202423
-0.00645359
-0.00364827
0.010119
0.00602453
-0.00364827
-0.00257751
0.00602453
0.00264125
0.00602453
0.00264125
0.0284499
0.0158708
0.010119
0.00602453
0.0599594
0.0284499
0.00108357
-0.0011323
0.00944368
0.0098866
-0.0011323
-0.00645359
0.0098866
0.010119
0.00988659
0.010119
0.127552
0.0599594
0.00944368
0.00988659
0.10892
0.127552
0.00117354
0.00108357
0.00843837
0.00944368
0.00843837
0.00944368
0.0503982
0.10892
0.00595236
0.00843838
0.0248966
0.0503982
0.0057117
0.00595236
0.0222072
0.0248966
0.000784828
-0.000223522
-0.00308663
-0.00278359
-0.0025106
-0.00181679
-0.00364827
-0.00257751
-0.00181679
-0.000700004
-0.00257751
0.00118382
2.15978e-06
2.64728e-06
4.23499e-06
3.03979e-06
2.64728e-06
-9.43427e-06
3.03979e-06
-5.47669e-06
-9.43427e-06
-2.60286e-06
-5.47669e-06
6.98707e-07
-2.60286e-06
1.2356e-06
6.98707e-07
-5.84008e-08
1.2356e-06
-2.07899e-07
-5.84008e-08
3.57706e-07
-2.07899e-07
1.67747e-07
3.57706e-07
-3.1337e-08
1.67747e-07
-7.81331e-08
-3.1337e-08
-1.00881e-08
-7.81331e-08
2.16924e-08
-1.00881e-08
-2.51491e-08
2.16924e-08
-1.59487e-08
-2.51491e-08
1.11579e-08
-1.59487e-08
8.17607e-09
1.11579e-08
-5.5795e-09
8.17607e-09
-4.25103e-09
-5.57951e-09
3.08752e-09
-4.25103e-09
2.25683e-09
3.08752e-09
-1.87999e-09
2.25683e-09
-1.13748e-09
-1.87999e-09
1.3066e-09
-1.13748e-09
-8.68156e-10
1.3066e-09
7.65674e-10
4.23499e-06
3.03979e-06
-1.14289e-06
-4.01774e-06
3.03979e-06
-5.47669e-06
-4.01774e-06
2.0739e-05
-5.47669e-06
6.98707e-07
2.0739e-05
8.84876e-06
6.98707e-07
-5.84009e-08
8.84876e-06
-3.66592e-06
-5.8401e-08
3.57706e-07
-3.66592e-06
1.07889e-06
3.57706e-07
-3.1337e-08
1.07889e-06
-5.2904e-07
-3.13371e-08
-1.00881e-08
-5.2904e-07
2.16162e-07
-1.00882e-08
-2.51491e-08
2.16162e-07
-9.73902e-08
-2.51491e-08
1.11579e-08
-9.73902e-08
6.12643e-08
1.11579e-08
-5.57951e-09
6.12643e-08
-3.12649e-08
-5.57951e-09
3.08752e-09
-3.12649e-08
1.64468e-08
3.08752e-09
-1.87999e-09
1.64468e-08
-8.9773e-09
-1.87999e-09
1.3066e-09
-8.9773e-09
4.95291e-09
1.3066e-09
7.65674e-10
4.95291e-09
3.51776e-09
-1.14289e-06
-4.01775e-06
-3.26827e-06
5.56085e-06
-4.01775e-06
2.0739e-05
5.56085e-06
-4.34183e-05
2.0739e-05
8.84876e-06
-4.34183e-05
-2.2081e-05
8.84876e-06
-3.66592e-06
-2.2081e-05
8.76469e-06
-3.66592e-06
1.07889e-06
8.76469e-06
-2.97878e-06
1.07889e-06
-5.2904e-07
-2.97878e-06
1.31072e-06
-5.2904e-07
2.16162e-07
1.31072e-06
-5.13043e-07
2.16162e-07
-9.73902e-08
-5.13042e-07
2.64445e-07
-9.73902e-08
6.12643e-08
2.64445e-07
-1.61397e-07
6.12642e-08
-3.12649e-08
-1.61397e-07
8.24246e-08
-3.12649e-08
1.64468e-08
8.24246e-08
-4.36165e-08
1.64468e-08
-8.9773e-09
-4.36165e-08
2.43478e-08
-8.97729e-09
4.95291e-09
2.43478e-08
-1.40006e-08
4.95291e-09
3.51776e-09
-1.40006e-08
-9.63027e-09
-3.26827e-06
5.56085e-06
9.23442e-06
-7.07768e-06
5.56085e-06
-4.34183e-05
-7.07767e-06
8.32167e-05
-4.34183e-05
-2.2081e-05
8.32167e-05
4.48578e-05
-2.2081e-05
8.76469e-06
4.48578e-05
-1.75928e-05
8.76469e-06
-2.97878e-06
-1.75928e-05
6.17826e-06
-2.97878e-06
1.31072e-06
6.17826e-06
-2.67768e-06
1.31072e-06
-5.13042e-07
-2.67768e-06
1.05119e-06
-5.13042e-07
2.64445e-07
1.05119e-06
-5.49199e-07
2.64445e-07
-1.61397e-07
-5.49199e-07
3.36906e-07
-1.61397e-07
8.24247e-08
3.36906e-07
-1.70665e-07
8.24246e-08
-4.36165e-08
-1.70665e-07
9.15359e-08
-4.36165e-08
2.43478e-08
9.15359e-08
-5.10497e-08
2.43478e-08
-1.40006e-08
-5.10497e-08
2.96821e-08
-1.40006e-08
-9.63027e-09
2.96821e-08
2.04666e-08
9.23443e-06
-7.07768e-06
-4.1461e-06
1.85861e-05
-7.07768e-06
8.32166e-05
1.85861e-05
-0.000126615
8.32167e-05
4.48578e-05
-0.000126615
-5.85929e-05
4.48578e-05
-1.75928e-05
-5.85929e-05
2.30744e-05
-1.75928e-05
6.17826e-06
2.30744e-05
-7.27881e-06
6.17826e-06
-2.67768e-06
-7.27881e-06
3.48267e-06
-2.67767e-06
1.05119e-06
3.48267e-06
-1.43127e-06
1.05119e-06
-5.49199e-07
-1.43127e-06
6.85458e-07
-5.49199e-07
3.36906e-07
6.85458e-07
-4.27146e-07
3.36906e-07
-1.70665e-07
-4.27147e-07
2.18061e-07
-1.70665e-07
9.15359e-08
2.18061e-07
-1.16023e-07
9.15359e-08
-5.10497e-08
-1.16023e-07
6.54389e-08
-5.10497e-08
2.9682e-08
6.54389e-08
-3.82205e-08
2.9682e-08
2.04666e-08
-3.82204e-08
-2.67465e-08
-4.1461e-06
1.85861e-05
9.27824e-06
-3.47302e-05
1.85861e-05
-0.000126615
-3.47302e-05
0.000232252
-0.000126615
-5.85929e-05
0.000232252
0.000107062
-5.85929e-05
2.30744e-05
0.000107062
-4.17398e-05
2.30744e-05
-7.27881e-06
-4.17398e-05
1.31174e-05
-7.27881e-06
3.48267e-06
1.31174e-05
-6.35341e-06
3.48267e-06
-1.43127e-06
-6.35341e-06
2.64089e-06
-1.43127e-06
6.85458e-07
2.64089e-06
-1.26421e-06
6.85457e-07
-4.27147e-07
-1.26421e-06
7.88172e-07
-4.27147e-07
2.18061e-07
7.88172e-07
-4.03886e-07
2.18061e-07
-1.16023e-07
-4.03886e-07
2.15947e-07
-1.16023e-07
6.54389e-08
2.15947e-07
-1.22314e-07
6.54389e-08
-3.82204e-08
-1.22314e-07
7.25743e-08
-3.82205e-08
-2.67465e-08
7.25743e-08
5.10228e-08
9.27824e-06
-3.47302e-05
-2.45836e-05
6.28703e-05
-3.47303e-05
0.000232252
6.28704e-05
-0.000430454
0.000232252
0.000107062
-0.000430453
-0.000200431
0.000107062
-4.17398e-05
-0.000200431
7.72413e-05
-4.17398e-05
1.31174e-05
7.72413e-05
-2.47504e-05
1.31174e-05
-6.35341e-06
-2.47504e-05
1.21654e-05
-6.35341e-06
2.64089e-06
1.21653e-05
-5.0684e-06
2.64089e-06
-1.26421e-06
-5.0684e-06
2.46078e-06
-1.26421e-06
7.88172e-07
2.46078e-06
-1.52994e-06
7.88172e-07
-4.03886e-07
-1.52994e-06
7.92296e-07
-4.03886e-07
2.15947e-07
7.92297e-07
-4.19726e-07
2.15947e-07
-1.22314e-07
-4.19726e-07
2.38906e-07
-1.22313e-07
7.25743e-08
2.38906e-07
-1.42705e-07
7.25743e-08
5.10228e-08
-1.42705e-07
-1.01419e-07
-2.45836e-05
9.67169e-05
0.000221753
-0.000396273
9.67169e-05
6.28703e-05
-0.000396273
-0.000200914
6.28703e-05
-0.000196263
-0.000200914
0.000864974
-0.000196263
-0.000430453
0.000864974
0.000954342
-0.000430453
-0.000396591
0.000954342
0.000498304
-0.000396591
-0.000200431
0.000498304
0.000568467
-0.000200431
-1.3648e-05
0.000568467
6.67282e-05
-1.3648e-05
7.72413e-05
6.67282e-05
-0.000187798
7.72413e-05
4.01121e-05
-0.000187798
-0.000147915
4.01121e-05
-2.47504e-05
-0.000147915
9.0759e-05
-2.47504e-05
-1.94231e-05
9.07591e-05
5.55737e-05
-1.94231e-05
1.21654e-05
5.55737e-05
-3.29493e-05
1.21654e-05
1.042e-05
-3.29493e-05
-1.74845e-05
1.042e-05
-5.0684e-06
-1.74845e-05
2.04711e-05
-5.0684e-06
2.46078e-06
2.04711e-05
-9.29864e-06
2.46078e-06
-1.52994e-06
-9.29864e-06
4.92675e-06
-1.52994e-06
7.92297e-07
4.92675e-06
-2.5676e-06
7.92297e-07
-4.19726e-07
-2.5676e-06
1.39327e-06
0.000221753
-0.000396273
0.000267644
-5.01082e-05
-0.000396273
-0.000200914
-5.01082e-05
0.000114396
-0.000200914
0.000864974
0.000114396
0.000492809
0.000864974
0.000954342
0.000492809
-0.0006992
0.000954342
0.000498304
-0.0006992
-0.00104561
0.000498304
0.000568467
-0.00104561
-0.000418903
0.000568467
6.67282e-05
-0.000418903
-1.2299e-05
6.67282e-05
-0.000187798
-1.2299e-05
0.000143271
-0.000187799
-0.000147915
0.000143271
4.4301e-05
-0.000147915
9.07591e-05
4.4301e-05
-2.97632e-05
9.07591e-05
5.55737e-05
-2.97632e-05
-3.07095e-05
5.55737e-05
-3.29493e-05
-3.07095e-05
4.42774e-05
-3.29493e-05
-1.74845e-05