# vtk DataFile Version 2.0
Hex test
ASCII
DATASET UNSTRUCTURED_GRID
POINTS 8836 float
44 40 0
44 41 0
46 40 0
46 41 0
44 41 0
44 42 0
46 41 0
46 42 0
44 42 0
44 43 0
46 42 0
46 43 0
44 43 0
44 44 0
46 43 0
46 44 0
46 32 0
46 33 0
48 32 0
48 33 0
46 33 0
46 34 0
48 33 0
48 34 0
46 34 0
46 35 0
48 34 0
48 35 0
46 35 0
46 36 0
48 35 0
48 36 0
46 36 0
46 37 0
48 36 0
48 37 0
46 37 0
46 38 0
48 37 0
48 38 0
46 38 0
46 39 0
48 38 0
48 39 0
46 39 0
46 40 0
48 39 0
48 40 0
46 40 0
46 41 0
48 40 0
48 41 0
46 41 0
46 42 0
48 41 0
48 42 0
46 42 0
46 43 0
48 42 0
48 43 0
46 43 0
46 44 0
48 43 0
48 44 0
46 44 0
46 46 0
48 44 0
48 46 0
48 32 0
48 33 0
50 32 0
50 33 0
48 33 0
48 34 0
50 33 0
50 34 0
48 34 0
48 35 0
50 34 0
50 35 0
48 35 0
48 36 0
50 35 0
50 36 0
48 36 0
48 37 0
50 36 0
50 37 0
48 37 0
48 38 0
50 37 0
50 38 0
48 38 0
48 39 0
50 38 0
50 39 0
48 39 0
48 40 0
50 39 0
50 40 0
48 40 0
48 42 0
50 40 0
50 42 0
48 42 0
48 44 0
50 42 0
50 44 0
48 44 0
48 46 0
50 44 0
50 46 0
50 32 0
50 34 0
52 32 0
52 34 0
50 34 0
50 36 0
52 34 0
52 36 0
50 36 0
50 38 0
52 36 0
52 38 0
50 38 0
50 40 0
52 38 0
52 40 0
50 40 0
50 42 0
52 40 0
52 42 0
50 42 0
50 44 0
52 42 0
52 44 0
50 44 0
50 46 0
52 44 0
52 46 0
50 46 0
50 48 0
52 46 0
52 48 0
52 32 0
52 34 0
54 32 0
54 34 0
52 34 0
52 36 0
54 34 0
54 36 0
52 36 0
52 38 0
54 36 0
54 38 0
52 38 0
52 40 0
54 38 0
54 40 0
52 40 0
52 42 0
54 40 0
54 42 0
52 42 0
52 44 0
54 42 0
54 44 0
52 44 0
52 46 0
54 44 0
54 46 0
52 46 0
52 48 0
54 46 0
54 48 0
54 32 0
54 34 0
56.1667 32 0
56.1667 34 0
54 34 0
54 36 0
56.1667 34 0
56.1667 36 0
54 36 0
54 38 0
56.1667 36 0
56.1667 38 0
54 38 0
54 40 0
56.1667 38 0
56.1667 40 0
54 40 0
54 42 0
56.1667 40 0
56.1667 42 0
54 42 0
54 44 0
56.1667 42 0
56.1667 44 0
54 44 0
54 46 0
56.1667 44 0
56.1667 46 0
54 46 0
54 48 0
56.1667 46 0
56.1667 48 0
56.1667 32 0
56.1667 34 0
60 32 0
60 34 0
56.1667 34 0
56.1667 36 0
60 34 0
60 36 0
56.1667 36 0
56.1667 38 0
60 36 0
60 38 0
56.1667 38 0
56.1667 40 0
60 38 0
60 40 0
56.1667 40 0
56.1667 42 0
60 40 0
60 42 0
56.1667 42 0
56.1667 44 0
60 42 0
60 44 0
56.1667 44 0
56.1667 46 0
60 44 0
60 46 0
56.1667 46 0
56.1667 48 0
60 46 0
60 48 0
44 38 0
44 39 0
46 38 0
46 39 0
44 39 0
44 40 0
46 39 0
46 40 0
44 36 0
44 37 0
46 36 0
46 37 0
44 37 0
44 38 0
46 37 0
46 38 0
44 34 0
44 35 0
46 34 0
46 35 0
44 35 0
44 36 0
46 35 0
46 36 0
44 32 0
44 33 0
46 32 0
46 33 0
44 33 0
44 34 0
46 33 0
46 34 0
42 42 0
42 43 0
44 42 0
44 43 0
42 40 0
42 41 0
44 40 0
44 41 0
42 41 0
42 42 0
44 41 0
44 42 0
42 38 0
42 39 0
43 38 0
43 39 0
43 38 0
43 39 0
44 38 0
44 39 0
42 39 0
42 40 0
43 39 0
43 40 0
43 39 0
43 40 0
44 39 0
44 40 0
42 36 0
42 37 0
43 36 0
43 37 0
42 37 0
42 38 0
43 37 0
43 38 0
43 37 0
43 38 0
44 37 0
44 38 0
43 36 0
43 37 0
44 36 0
44 37 0
42 34 0
42 35 0
43 34 0
43 35 0
42 35 0
42 36 0
43 35 0
43 36 0
43 35 0
43 36 0
44 35 0
44 36 0
43 34 0
43 35 0
44 34 0
44 35 0
42 32 0
42 33 0
43 32 0
43 33 0
42 33 0
42 34 0
43 33 0
43 34 0
43 33 0
43 34 0
44 33 0
44 34 0
43 32 0
43 33 0
44 32 0
44 33 0
42 31 0
42 32 0
43 31 0
43 32 0
43 31 0
43 32 0
44 31 0
44 32 0
40 42 0
40 43 0
41 42 0
41 43 0
41 42 0
41 43 0
42 42 0
42 43 0
40 40 0
40 41 0
41 40 0
41 41 0
40 41 0
40 42 0
41 41 0
41 42 0
41 41 0
41 42 0
42 41 0
42 42 0
41 40 0
41 41 0
42 40 0
42 41 0
40 38 0
40 39 0
41 38 0
41 39 0
40 39 0
40 40 0
41 39 0
41 40 0
41 39 0
41 40 0
42 39 0
42 40 0
41 38 0
41 39 0
42 38 0
42 39 0
40 36 0
40 37 0
41 36 0
41 37 0
40 37 0
40 38 0
41 37 0
41 38 0
41 37 0
41 38 0
42 37 0
42 38 0
41 36 0
41 37 0
42 36 0
42 37 0
40 34 0
40 35 0
41 34 0
41 35 0
40 35 0
40 36 0
41 35 0
41 36 0
41 35 0
41 36 0
42 35 0
42 36 0
41 34 0
41 35 0
42 34 0
42 35 0
40 32 0
40 33 0
41 32 0
41 33 0
40 33 0
40 34 0
41 33 0
41 34 0
41 33 0
41 34 0
42 33 0
42 34 0
41 32 0
41 33 0
42 32 0
42 33 0
40 30 0
40 31 0
41 30 0
41 31 0
40 31 0
40 32 0
41 31 0
41 32 0
41 31 0
41 32 0
42 31 0
42 32 0
41 30 0
41 31 0
42 30 0
42 31 0
38 40 0
38 41 0
39 40 0
39 41 0
39 41 0
39 42 0
40 41 0
40 42 0
39 40 0
39 41 0
40 40 0
40 41 0
38 38 0
38 39 0
39 38 0
39 39 0
38 39 0
38 40 0
39 39 0
39 40 0
39 39 0
39 40 0
40 39 0
40 40 0
39 38 0
39 39 0
40 38 0
40 39 0
38 36 0
38 37 0
39 36 0
39 37 0
38 37 0
38 38 0
39 37 0
39 38 0
39 37 0
39 38 0
40 37 0
40 38 0
39 36 0
39 37 0
40 36 0
40 37 0
38 34 0
38 35 0
39 34 0
39 35 0
38 35 0
38 36 0
39 35 0
39 36 0
39 35 0
39 36 0
40 35 0
40 36 0
39 34 0
39 35 0
40 34 0
40 35 0
38 32 0
38 33 0
39 32 0
39 33 0
38 33 0
38 34 0
39 33 0
39 34 0
39 33 0
39 34 0
40 33 0
40 34 0
39 32 0
39 33 0
40 32 0
40 33 0
39 31 0
39 32 0
40 31 0
40 32 0
37 40 0
37 41 0
38 40 0
38 41 0
37 39 0
37 40 0
38 39 0
38 40 0
37 38 0
37 39 0
38 38 0
38 39 0
37 37 0
37 38 0
38 37 0
38 38 0
30 48 0
30 50 0
32 48 0
32 50 0
30 50 0
30 52 0
32 50 0
32 52 0
30 52 0
30 54 0
32 52 0
32 54 0
30 54 0
30 56.1667 0
32 54 0
32 56.1667 0
30 56.1667 0
30 60 0
32 56.1667 0
32 60 0
32 48 0
32 50 0
34 48 0
34 50 0
32 50 0
32 52 0
34 50 0
34 52 0
32 52 0
32 54 0
34 52 0
34 54 0
32 54 0
32 56.1667 0
34 54 0
34 56.1667 0
32 56.1667 0
32 60 0
34 56.1667 0
34 60 0
34 48 0
34 50 0
36 48 0
36 50 0
34 50 0
34 52 0
36 50 0
36 52 0
34 52 0
34 54 0
36 52 0
36 54 0
34 54 0
34 56.1667 0
36 54 0
36 56.1667 0
34 56.1667 0
34 60 0
36 56.1667 0
36 60 0
36 48 0
36 50 0
38 48 0
38 50 0
36 50 0
36 52 0
38 50 0
38 52 0
36 52 0
36 54 0
38 52 0
38 54 0
36 54 0
36 56.1667 0
38 54 0
38 56.1667 0
36 56.1667 0
36 60 0
38 56.1667 0
38 60 0
38 48 0
38 50 0
40 48 0
40 50 0
38 50 0
38 52 0
40 50 0
40 52 0
38 52 0
38 54 0
40 52 0
40 54 0
38 54 0
38 56.1667 0
40 54 0
40 56.1667 0
38 56.1667 0
38 60 0
40 56.1667 0
40 60 0
40 46 0
40 47 0
42 46 0
42 47 0
40 47 0
40 48 0
42 47 0
42 48 0
40 48 0
40 50 0
42 48 0
42 50 0
40 50 0
40 52 0
42 50 0
42 52 0
40 52 0
40 54 0
42 52 0
42 54 0
40 54 0
40 56.1667 0
42 54 0
42 56.1667 0
40 56.1667 0
40 60 0
42 56.1667 0
42 60 0
42 44 0
42 45 0
44 44 0
44 45 0
42 45 0
42 46 0
44 45 0
44 46 0
42 46 0
42 47 0
44 46 0
44 47 0
42 47 0
42 48 0
44 47 0
44 48 0
42 48 0
42 50 0
44 48 0
44 50 0
42 50 0
42 52 0
44 50 0
44 52 0
42 52 0
42 54 0
44 52 0
44 54 0
42 54 0
42 56.1667 0
44 54 0
44 56.1667 0
42 56.1667 0
42 60 0
44 56.1667 0
44 60 0
44 44 0
44 45 0
46 44 0
46 45 0
44 45 0
44 46 0
46 45 0
46 46 0
44 46 0
44 48 0
46 46 0
46 48 0
44 48 0
44 50 0
46 48 0
46 50 0
44 50 0
44 52 0
46 50 0
46 52 0
44 52 0
44 54 0
46 52 0
46 54 0
44 54 0
44 56.1667 0
46 54 0
46 56.1667 0
44 56.1667 0
44 60 0
46 56.1667 0
46 60 0
46 46 0
46 48 0
48 46 0
48 48 0
46 48 0
46 50 0
48 48 0
48 50 0
46 50 0
46 52 0
48 50 0
48 52 0
46 52 0
46 54 0
48 52 0
48 54 0
46 54 0
46 56.1667 0
48 54 0
48 56.1667 0
46 56.1667 0
46 60 0
48 56.1667 0
48 60 0
48 46 0
48 48 0
50 46 0
50 48 0
48 48 0
48 50 0
50 48 0
50 50 0
48 50 0
48 52 0
50 50 0
50 52 0
48 52 0
48 54 0
50 52 0
50 54 0
48 54 0
48 56.1667 0
50 54 0
50 56.1667 0
48 56.1667 0
48 60 0
50 56.1667 0
50 60 0
50 48 0
50 50 0
52 48 0
52 50 0
50 50 0
50 52 0
52 50 0
52 52 0
50 52 0
50 54 0
52 52 0
52 54 0
50 54 0
50 56.1667 0
52 54 0
52 56.1667 0
50 56.1667 0
50 60 0
52 56.1667 0
52 60 0
52 48 0
52 50 0
54 48 0
54 50 0
52 50 0
52 52 0
54 50 0
54 52 0
52 52 0
52 54 0
54 52 0
54 54 0
52 54 0
52 56.1667 0
54 54 0
54 56.1667 0
52 56.1667 0
52 60 0
54 56.1667 0
54 60 0
54 48 0
54 50 0
56.1667 48 0
56.1667 50 0
54 50 0
54 52 0
56.1667 50 0
56.1667 52 0
54 52 0
54 54 0
56.1667 52 0
56.1667 54 0
54 54 0
54 56.1667 0
56.1667 54 0
56.1667 56.1667 0
54 56.1667 0
54 60 0
56.1667 56.1667 0
56.1667 60 0
56.1667 48 0
56.1667 50 0
60 48 0
60 50 0
56.1667 50 0
56.1667 52 0
60 50 0
60 52 0
56.1667 52 0
56.1667 54 0
60 52 0
60 54 0
56.1667 54 0
56.1667 56.1667 0
60 54 0
60 56.1667 0
56.1667 56.1667 0
56.1667 60 0
60 56.1667 0
60 60 0
42 43 0
42 44 0
44 43 0
44 44 0
40 44 0
40 45 0
42 44 0
42 45 0
40 45 0
40 46 0
42 45 0
42 46 0
40 43 0
40 44 0
41 43 0
41 44 0
41 43 0
41 44 0
42 43 0
42 44 0
38 46 0
38 47 0
40 46 0
40 47 0
38 47 0
38 48 0
40 47 0
40 48 0
38 44 0
38 45 0
39 44 0
39 45 0
39 44 0
39 45 0
40 44 0
40 45 0
38 45 0
38 46 0
39 45 0
39 46 0
39 45 0
39 46 0
40 45 0
40 46 0
38 42 0
38 43 0
39 42 0
39 43 0
38 43 0
38 44 0
39 43 0
39 44 0
39 43 0
39 44 0
40 43 0
40 44 0
39 42 0
39 43 0
40 42 0
40 43 0
38 41 0
38 42 0
39 41 0
39 42 0
36 46 0
36 47 0
37 46 0
37 47 0
37 46 0
37 47 0
38 46 0
38 47 0
36 47 0
36 48 0
37 47 0
37 48 0
37 47 0
37 48 0
38 47 0
38 48 0
36 44 0
36 45 0
37 44 0
37 45 0
36 45 0
36 46 0
37 45 0
37 46 0
37 45 0
37 46 0
38 45 0
38 46 0
37 44 0
37 45 0
38 44 0
38 45 0
36 42 0
36 43 0
37 42 0
37 43 0
36 43 0
36 44 0
37 43 0
37 44 0
37 43 0
37 44 0
38 43 0
38 44 0
37 42 0
37 43 0
38 42 0
38 43 0
36 41 0
36 42 0
37 41 0
37 42 0
37 41 0
37 42 0
38 41 0
38 42 0
34 46 0
34 47 0
35 46 0
35 47 0
35 46 0
35 47 0
36 46 0
36 47 0
34 47 0
34 48 0
35 47 0
35 48 0
35 47 0
35 48 0
36 47 0
36 48 0
34 44 0
34 45 0
35 44 0
35 45 0
34 45 0
34 46 0
35 45 0
35 46 0
35 45 0
35 46 0
36 45 0
36 46 0
35 44 0
35 45 0
36 44 0
36 45 0
34 42 0
34 43 0
35 42 0
35 43 0
34 43 0
34 44 0
35 43 0
35 44 0
35 43 0
35 44 0
36 43 0
36 44 0
35 42 0
35 43 0
36 42 0
36 43 0
35 41 0
35 42 0
36 41 0
36 42 0
32 46 0
32 47 0
33 46 0
33 47 0
33 46 0
33 47 0
34 46 0
34 47 0
32 47 0
32 48 0
33 47 0
33 48 0
33 47 0
33 48 0
34 47 0
34 48 0
32 44 0
32 45 0
33 44 0
33 45 0
32 45 0
32 46 0
33 45 0
33 46 0
33 45 0
33 46 0
34 45 0
34 46 0
33 44 0
33 45 0
34 44 0
34 45 0
32 43 0
32 44 0
33 43 0
33 44 0
33 43 0
33 44 0
34 43 0
34 44 0
30 46 0
30 47 0
31 46 0
31 47 0
31 46 0
31 47 0
32 46 0
32 47 0
30 47 0
30 48 0
31 47 0
31 48 0
31 47 0
31 48 0
32 47 0
32 48 0
30 45 0
30 46 0
31 45 0
31 46 0
31 45 0
31 46 0
32 45 0
32 46 0
31 44 0
31 45 0
32 44 0
32 45 0
14 48 0
14 50 0
16 48 0
16 50 0
14 50 0
14 52 0
16 50 0
16 52 0
14 52 0
14 54 0
16 52 0
16 54 0
14 54 0
14 56.1667 0
16 54 0
16 56.1667 0
14 56.1667 0
14 60 0
16 56.1667 0
16 60 0
16 48 0
16 50 0
18 48 0
18 50 0
16 50 0
16 52 0
18 50 0
18 52 0
16 52 0
16 54 0
18 52 0
18 54 0
16 54 0
16 56.1667 0
18 54 0
18 56.1667 0
16 56.1667 0
16 60 0
18 56.1667 0
18 60 0
18 48 0
18 50 0
20 48 0
20 50 0
18 50 0
18 52 0
[...]
POINT_DATA 8836
SCALARS phi float 1
LOOKUP_TABLE default
-3.0379e-05
-5.21832e-05
-1.52161e-05
-1.34752e-05
-5.21832e-05
1.01543e-05
-1.34752e-05
-2.33726e-06
1.01543e-05
2.78563e-05
-2.33726e-06
2.85147e-06
2.78563e-05
1.24302e-05
2.85147e-06
3.00295e-06
-0.000330394
-0.000358876
0.00032506
-7.05366e-05
-0.000358876
9.4302e-05
-7.05366e-05
-5.60174e-05
9.43021e-05
5.48292e-05
-5.60174e-05
-0.000119488
5.48292e-05
-1.29897e-05
-0.000119488
1.36043e-05
-1.29897e-05
-7.56673e-06
1.36043e-05
4.41778e-05
-7.56673e-06
1.7762e-05
4.41778e-05
-1.21046e-05
1.7762e-05
-3.31989e-07
-1.21046e-05
-1.60799e-05
-3.31989e-07
-1.52161e-05
-1.60799e-05
1.73821e-05
-1.52161e-05
-1.34752e-05
1.73821e-05
1.25713e-05
-1.34752e-05
-2.33726e-06
1.25713e-05
-7.61823e-06
-2.33726e-06
2.85147e-06
-7.61822e-06
-5.36566e-06
2.85147e-06
3.00295e-06
-5.36566e-06
5.08772e-06
3.00295e-06
-9.40962e-07
5.08772e-06
-2.56206e-06
0.00032506
-7.05366e-05
-0.000108676
-8.21253e-05
-7.05366e-05
-5.60174e-05
-8.21253e-05
-2.43035e-06
-5.60174e-05
-0.000119488
-2.43036e-06
2.22719e-05
-0.000119488
1.36043e-05
2.22719e-05
1.02684e-05
1.36043e-05
4.41778e-05
1.02684e-05
1.97318e-06
4.41778e-05
-1.21046e-05
1.97318e-06
-1.11165e-07
-1.21046e-05
-1.60799e-05
-1.11165e-07
-1.55018e-06
-1.60799e-05
1.73821e-05
-1.55018e-06
-2.27082e-06
1.73821e-05
-7.61823e-06
-2.27082e-06
-1.86828e-07
-7.61823e-06
5.08772e-06
-1.86828e-07
-4.32345e-07
5.08772e-06
-2.56206e-06
-4.32345e-07
3.64093e-07
-0.000108676
-2.43036e-06
6.77093e-05
-1.15999e-05
-2.43036e-06
1.02684e-05
-1.15999e-05
-8.62054e-07
1.02684e-05
-1.11164e-07
-8.62055e-07
-1.12024e-06
-1.11161e-07
-2.27082e-06
-1.12023e-06
1.86664e-06
-2.27082e-06
-1.86829e-07
1.86664e-06
-3.73427e-07
-1.86828e-07
-4.32345e-07
-3.73426e-07
4.02575e-07
-4.32345e-07
3.64093e-07
4.02575e-07
-2.2076e-07
3.64093e-07
-2.1264e-08
-2.2076e-07
5.92103e-08
6.77093e-05
-1.15999e-05
-3.19038e-05
2.62727e-06
-1.15999e-05
-8.62056e-07
2.62727e-06
9.73713e-07
-8.62053e-07
-1.12023e-06
9.73713e-07
-1.06241e-07
-1.12024e-06
1.86664e-06
-1.06241e-07
-6.72268e-07
1.86664e-06
-3.73426e-07
-6.72268e-07
1.74945e-07
-3.73426e-07
4.02575e-07
1.74945e-07
-1.41397e-07
4.02575e-07
-2.2076e-07
-1.41397e-07
4.61277e-08
-2.2076e-07
5.92103e-08
4.61277e-08
-1.28641e-08
-3.19038e-05
2.62727e-06
9.86193e-06
4.40279e-06
2.62727e-06
9.73712e-07
4.40279e-06
-1.01578e-06
9.73712e-07
-1.06241e-07
-1.01578e-06
1.08606e-06
-1.06241e-07
-6.72268e-07
1.08606e-06
-1.50268e-07
-6.72268e-07
1.74945e-07
-1.50268e-07
-7.40708e-08
1.74945e-07
-1.41397e-07
-7.40708e-08
-3.53348e-08
-1.41397e-07
4.61277e-08
-3.53348e-08
8.86153e-08
4.61277e-08
-1.28641e-08
8.86153e-08
-1.95389e-08
9.86193e-06
4.40279e-06
1.15736e-05
9.59068e-07
4.40279e-06
-1.01578e-06
9.59068e-07
-8.3336e-07
-1.01578e-06
1.08606e-06
-8.3336e-07
4.80306e-07
1.08606e-06
-1.50268e-07
4.80306e-07
1.45312e-07
-1.50268e-07
-7.40708e-08
1.45312e-07
-6.79437e-08
-7.40708e-08
-3.53348e-08
-6.79437e-08
2.60931e-08
-3.53348e-08
8.86153e-08
2.60931e-08
2.0341e-08
8.86153e-08
-1.95389e-08
2.0341e-08
-5.56861e-09
-2.28703e-05
-6.46543e-06
1.7762e-05
-3.31988e-07
-6.46543e-06
-3.0379e-05
-3.3199e-07
-1.52161e-05
-4.12344e-06
3.38472e-05
-1.29897e-05
-7.56673e-06
3.38472e-05
-2.28703e-05
-7.56673e-06
1.7762e-05
0.000172367
2.1163e-05
9.43021e-05
5.48292e-05
2.1163e-05
-4.12343e-06
5.48292e-05
-1.29897e-05
-0.000181071
-0.000247077
-0.000330394
-0.000358876
-0.000247077
0.000172368
-0.000358876
9.4302e-05
1.64e-05
3.54584e-05
1.01543e-05
2.78563e-05
-7.91353e-06
-2.18034e-05
-3.0379e-05
-5.21831e-05
-2.18034e-05
1.64e-05
-5.21832e-05
1.01543e-05
9.66965e-05
0.000183381
-1.17253e-05
-8.01734e-05
-1.17253e-05
-8.01734e-05
-2.28703e-05
-6.46543e-06
0.000183381
-7.91353e-06
-8.01734e-05
-1.59384e-05
-8.01734e-05
-1.59384e-05
-6.46544e-06
-3.0379e-05
0.000230393
-8.83775e-05
-4.7042e-05
9.53361e-05
-8.83775e-05
9.66965e-05
9.53361e-05
-1.17253e-05
9.53361e-05
-1.17253e-05
3.38472e-05
-2.28703e-05
-4.7042e-05
9.53361e-05
-4.12345e-06
3.38472e-05
-0.00203126
-0.00033022
0.000741981
0.000144407
-0.00033022
0.000230393
0.000144407
-4.7042e-05
0.000144407
-4.7042e-05
2.1163e-05
-4.12344e-06
0.00074198
0.000144407
0.000172368
2.1163e-05
0.00376116
0.00440576
-0.00123013
-0.00150386
0.00440576
-0.00203126
-0.00150386
0.00074198
-0.00150386
0.000741981
-0.000247077
0.000172367
-0.00123013
-0.00150386
-0.000181071
-0.000247077
3.94336e-05
0.00376116
6.13855e-05
-0.00123013
6.13855e-05
-0.00123013
0.000135489
-0.000181071
1.371e-05
-9.71143e-06
9.42631e-06
1.20426e-05
9.42631e-06
1.20426e-05
1.64e-05
3.54584e-05
8.2194e-05
7.38322e-05
5.18643e-06
1.72078e-06
7.38322e-05
1.371e-05
1.72079e-06
9.42631e-06
1.72079e-06
9.42631e-06
-2.18034e-05
1.64e-05
5.18644e-06
1.72079e-06
-7.91353e-06
-2.18034e-05
0.000197955
0.000247156
0.000204782
0.000601675
0.000247156
8.21941e-05
0.000601675
5.18643e-06
0.000601675
5.18643e-06
0.000183381
-7.91354e-06
0.000204782
0.000601675
9.66965e-05
0.000183381
0.000930787
-0.000581161
-0.000365662
0.000296938
-0.000581161
0.000197955
0.000296938
0.000204782
0.000296938
0.000204782
-8.83775e-05
9.66965e-05
-0.000365662
0.000296937
0.000230393
-8.83775e-05
-0.00743201
-0.00115866
0.00658646
0.000943185
-0.00115866
0.000930787
0.000943185
-0.000365662
0.000943185
-0.000365662
-0.00033022
0.000230393
0.00658646
0.000943185
-0.00203126
-0.00033022
0.0162743
0.0189413
-0.0111406
-0.010916
0.0189413
-0.00743201
-0.010916
0.00658646
-0.010916
0.00658646
0.00440576
-0.00203126
-0.0111406
-0.010916
0.00376116
0.00440576
0.00588564
0.00332579
-0.00133333
-0.00188542
0.00332579
0.0162743
-0.00188542
-0.0111406
-0.00188542
-0.0111406
3.94336e-05
0.00376116
-0.00133333
-0.00188542
0.00042504
3.94335e-05
2.58021e-05
0.000128522
7.83605e-05
0.000225008
0.000225008
6.86655e-06
7.38322e-05
1.371e-05
7.83605e-05
0.000225008
8.2194e-05
7.38322e-05
-0.000554868
9.80873e-05
0.000116479
0.000228063
9.80873e-05
2.58022e-05
0.000228063
7.83605e-05
0.000228063
7.83605e-05
0.000247156
8.21941e-05
0.000116479
0.000228063
0.000197955
0.000247156
0.00489301
-0.00144578
-0.00119818
0.00138013
-0.00144578
-0.000554868
0.00138013
0.000116479
0.00138013
0.000116479
-0.000581161
0.000197955
-0.00119818
0.00138013
0.000930787
-0.000581161
0.0950107
0.0305528
0.0194236
0.00353484
0.0305528
0.00489301
0.00353484
-0.00119818
0.00353484
-0.00119818
-0.00115866
0.000930787
0.0194236
0.00353484
-0.00743201
-0.00115866
0.671294
0.419353
0.0796304
0.0044666
0.419353
0.0950107
0.0044666
0.0194236
0.00446659
0.0194236
0.0189413
-0.00743201
0.0796304
0.00446659
0.0162743
0.0189414
0.163904
0.0796304
0.00332579
0.0162743
-0.000471044
0.00026836
2.58021e-05
0.000128522
0.00165893
-0.000471044
9.80873e-05
2.58021e-05
0.00245943
0.00165893
-0.000554868
9.80874e-05
0.0165971
0.00245943
-0.00144578
-0.000554868
0.000649503
1.61432e-05
0.000210807
1.99066e-05
1.61432e-05
2.66474e-05
1.99066e-05
6.98963e-06
2.66474e-05
-1.65274e-05
6.98963e-06
-6.81026e-06
-1.65274e-05
1.18404e-05
-6.81026e-06
3.68429e-06
1.18404e-05
7.7516e-06
3.68429e-06
9.81161e-07
0.000210807
1.99065e-05
-4.94874e-06
3.67662e-06
1.99065e-05
6.98963e-06
3.67662e-06
3.89016e-06
6.98963e-06
-6.81026e-06
3.89016e-06
-1.13693e-06
-6.81026e-06
3.68429e-06
-1.13693e-06
-3.22019e-07
3.68429e-06
9.81161e-07
-3.22019e-07
4.70283e-07
-4.94874e-06
3.67662e-06
1.46698e-05
4.61649e-06
3.67662e-06
3.89016e-06
4.61649e-06
-1.44881e-07
3.89016e-06
-1.13693e-06
-1.44881e-07
2.05158e-07
-1.13693e-06
-3.22019e-07
2.05158e-07
-4.93762e-07
-3.22019e-07
4.70283e-07
-4.93762e-07
-3.78927e-07
1.46698e-05
4.61649e-06
3.47794e-06
4.66293e-07
4.61649e-06
-1.44881e-07
4.66293e-07
1.78317e-07
-1.44881e-07
2.05158e-07
1.78317e-07
-4.1213e-09
2.05158e-07
-4.93762e-07
-4.12129e-09
8.39057e-08
-4.93762e-07
-3.78927e-07
8.39057e-08
1.19572e-07
3.47794e-06
4.66293e-07
-4.3234e-07
1.56293e-07
4.66293e-07
1.78317e-07
1.56293e-07
-3.90942e-08
1.78317e-07
-4.12128e-09
-3.90941e-08
7.5867e-08
-4.12127e-09
8.39057e-08
7.5867e-08
7.51948e-08
8.39057e-08
1.19572e-07
7.51948e-08
2.55758e-08
9.34322e-07
4.42313e-06
1.9598e-06
9.84341e-07
4.42313e-06
-4.3234e-07
9.84341e-07
1.65473e-07
-4.3234e-07
1.56293e-07
1.65473e-07
3.28213e-07
1.56293e-07
-3.90942e-08
3.28213e-07
-8.19584e-08
-3.90942e-08
7.5867e-08
-8.19584e-08
6.41046e-08
7.5867e-08
7.51948e-08
6.41046e-08
-7.2873e-08
7.51948e-08
2.55758e-08
-7.2873e-08
-4.97217e-08
2.25348e-05
9.21866e-06
1.24302e-05
3.50667e-06
9.21866e-06
1.9598e-06
3.50667e-06
2.07221e-06
1.9598e-06
9.84341e-07
2.07221e-06
7.29558e-07
9.84341e-07
1.65473e-07
7.29558e-07
-5.04258e-07
1.65473e-07
3.28213e-07
-5.04258e-07
4.08138e-07
3.28213e-07
-8.19584e-08
4.08138e-07
-1.47907e-07
-8.19584e-08
6.41046e-08
-1.47907e-07
1.56198e-07
6.41046e-08
-7.2873e-08
1.56198e-07
-1.55339e-07
-7.2873e-08
-4.97217e-08
-1.55339e-07
-6.9299e-08
1.24302e-05
3.50667e-06
3.00295e-06
9.29109e-07
3.50667e-06
2.07221e-06
9.29109e-07
-9.40962e-07
2.07221e-06
-5.04258e-07
-9.40962e-07
1.97661e-07
-5.04258e-07
4.08138e-07
1.97661e-07
4.23604e-07
4.08138e-07
-1.47907e-07
4.23604e-07
-2.62111e-08
-1.47907e-07
1.56198e-07
-2.62111e-08
2.87001e-09
1.56198e-07
-1.55339e-07
2.87001e-09
2.18052e-08
-1.55339e-07
-6.9299e-08
2.18052e-08
1.14073e-08
-9.40962e-07
1.97661e-07
-2.56206e-06
1.04045e-06
1.97661e-07
4.23604e-07
1.04045e-06
-3.40897e-07
4.23604e-07
-2.6211e-08
-3.40897e-07
3.03139e-07
-2.62111e-08
2.87001e-09
3.03139e-07
-9.2357e-08
2.87001e-09
2.18052e-08
-9.2357e-08
-3.63746e-08
2.18052e-08
1.14073e-08
-3.63746e-08
-5.30425e-10
-2.56206e-06
1.04045e-06
3.64093e-07
-2.1264e-08
1.04045e-06
-3.40897e-07
-2.1264e-08
-9.85122e-08
-3.40898e-07
3.03139e-07
-9.85122e-08
3.03298e-09
3.03139e-07
-9.2357e-08
3.03298e-09
-2.45923e-08
-9.23571e-08
-3.63746e-08
-2.45923e-08
3.5301e-08
-3.63746e-08
-5.30425e-10
3.5301e-08
1.29663e-08
-2.12641e-08
-9.85122e-08
5.92103e-08
-6.12007e-10
-9.85122e-08
3.03299e-09
-6.11991e-10
1.67553e-08
3.03299e-09
-2.45923e-08
1.67553e-08
1.99175e-09
-2.45923e-08
3.5301e-08
1.99175e-09
-1.26757e-08
3.5301e-08
1.29663e-08
-1.26757e-08
-4.13513e-09
5.92104e-08
-6.11999e-10
-1.28641e-08
4.86566e-09
-6.11991e-10
1.67553e-08
4.86565e-09
-4.83236e-09
1.67553e-08
1.99175e-09
-4.83236e-09
-1.19619e-09
1.99175e-09
-1.26757e-08
-1.19619e-09
4.82687e-09
-1.26757e-08
-4.13513e-09
4.82687e-09
1.7435e-09
-1.28641e-08
4.86565e-09
-1.95389e-08
-1.28492e-08
4.86565e-09
-4.83236e-09
-1.28492e-08
-2.69822e-09
-4.83236e-09
-1.19619e-09
-2.69822e-09
-1.40974e-10
-1.19619e-09
4.82687e-09
-1.40974e-10
1.23857e-09
4.82687e-09
1.7435e-09
1.23857e-09
1.8572e-10
-1.95389e-08
-1.28492e-08
-5.56861e-09
-2.13575e-09
-1.28492e-08
-2.69822e-09
-2.13575e-09
-7.28433e-10
-2.69822e-09
-1.40974e-10
-7.28433e-10
8.59722e-10
-1.40974e-10
1.23857e-09
8.59722e-10
-1.00976e-09
1.23857e-09
1.8572e-10
-1.00976e-09
-4.6904e-10
3.54584e-05
2.25348e-05
2.78563e-05
1.24302e-05
-8.65424e-07
-2.3912e-06
2.25348e-05
9.21866e-06
-2.3912e-06
9.34322e-07
9.21866e-06
1.9598e-06
-9.71143e-06
-8.65424e-07
1.20426e-05
9.57094e-06
1.20426e-05
9.57094e-06
3.54584e-05
2.25348e-05
1.05123e-05
1.07346e-05
9.34322e-07
4.42313e-06
1.07346e-05
3.47794e-06
4.42313e-06
-4.3234e-07
-5.22687e-06
1.60898e-05
4.6407e-06
-4.00769e-06
4.6407e-06
-4.00769e-06
-8.65425e-07
-2.3912e-06
1.60898e-05
1.05123e-05
-4.00768e-06
8.0861e-06
-4.00768e-06
8.0861e-06
-2.3912e-06
9.34322e-07
-4.91931e-06
-3.44723e-05
6.86655e-06
-5.32819e-05
-3.44723e-05
-5.22687e-06
-5.32819e-05
4.6407e-06
-5.32819e-05
4.6407e-06
-9.71143e-06
-8.65424e-07
6.86655e-06
-5.32819e-05
1.371e-05
-9.71143e-06
0.000128522
-4.91932e-06
0.000225008
6.86655e-06
-1.18334e-05
-2.05327e-06
3.91921e-06
1.08607e-05
3.91921e-06
1.08607e-05
1.05123e-05
1.07346e-05
-2.05327e-06
1.46698e-05
1.08607e-05
1.45787e-05
1.08607e-05
1.45787e-05
1.07346e-05
3.47794e-06
-2.50777e-05
-5.76871e-05
-3.83665e-05
6.63487e-06
-5.76871e-05
-1.18334e-05
6.63487e-06
3.91921e-06
6.63487e-06
3.91921e-06
1.60898e-05
1.05123e-05
-3.83665e-05
6.63487e-06
-5.22687e-06
1.60898e-05
-0.000120375
2.08883e-05
-0.000130195
0.000139796
2.08883e-05
-2.50777e-05
0.000139796
-3.83665e-05
0.000139796
-3.83665e-05
-3.44723e-05
-5.22687e-06
-0.000130195
0.000139796
-4.91932e-06
-3.44723e-05
0.000618547
-0.000120375
0.00026836
-0.000130195
0.00026836
-0.000130195
0.000128522
-4.91931e-06
-3.12075e-05
-4.88406e-05
-7.56155e-05
-6.47923e-05
-7.56155e-05
-6.47923e-05
-1.18334e-05
-2.05327e-06
-4.88406e-05
-4.94874e-06
-6.47923e-05
-5.76626e-06
-6.47923e-05
-5.76626e-06
-2.05327e-06
1.46698e-05
0.000402063
-0.000412585
-0.000111848
-5.48337e-05
-0.000412585
-3.12075e-05
-5.48337e-05
-7.56155e-05
-5.48337e-05
-7.56155e-05
-5.76871e-05
-1.18334e-05
-0.000111848
-5.48337e-05
-2.50777e-05
-5.76871e-05
0.00202345
-0.000948281
-0.000303131
0.000172202
-0.000948282
0.000402063
0.000172202
-0.000111848
0.000172202
-0.000111848
2.08883e-05
-2.50777e-05
-0.000303131
0.000172202
-0.000120375
2.08883e-05
0.000774303
-0.000303131
0.000618547
-0.000120375
0.000498939
0.00015832
3.70215e-05
-5.00943e-05
3.70215e-05
-5.00943e-05
-3.12075e-05
-4.88406e-05
0.00015832
0.000210807
-5.00943e-05
6.32201e-05
-5.00943e-05
6.32201e-05
-4.88406e-05
-4.94874e-06
0.000887628
0.00011269
0.000275985
-0.000295009
0.00011269
0.000498939
-0.000295009
3.70215e-05
-0.000295009
3.70215e-05
-0.000412585
-3.12075e-05
0.000275985
-0.000295009
0.000402063
-0.000412585
-0.00149226
0.000887628
-0.000626758
0.000275985
-0.000626758
0.000275985
-0.000948282
0.000402062
0.00233736
0.00146636
0.00127651
0.000672924
0.00127651
0.000672924
0.000498939
0.00015832
0.00146636
0.000649503
0.000672924
0.000427751
0.000672924
0.000427751
0.00015832
0.000210807
-0.00250378
0.00233736
4.58303e-05
0.00127651
4.58302e-05
0.00127651
0.00011269
0.000498939
0.00266713
4.58302e-05
0.000887628
0.00011269
6.67875e-05
1.25593e-05
-0.000106062
-2.25528e-05
1.25593e-05
-2.57047e-06
-2.25528e-05
8.98248e-06
-2.57048e-06
1.32327e-08
8.98248e-06
-2.20721e-06
1.32327e-08
2.41369e-06
-2.20721e-06
-2.7691e-06
2.41369e-06
6.20827e-07
-2.7691e-06
-7.49922e-07
-0.000106062
-2.25528e-05
0.00053578
5.51359e-06
-2.25528e-05
8.98248e-06
5.51358e-06
3.05078e-05
8.98248e-06
-2.20721e-06
3.05078e-05
-9.47743e-06
-2.20721e-06
-2.7691e-06
-9.47743e-06
-3.4722e-06
-2.7691e-06
-7.49922e-07
-3.4722e-06
3.85875e-06
0.00053578
5.51358e-06
0.000696926
6.61994e-05
5.51358e-06
3.05078e-05
6.61994e-05
6.92393e-06
3.05078e-05
-9.47743e-06
6.92393e-06
-5.55586e-07
-9.47743e-06
-3.4722e-06
-5.55586e-07
-2.40041e-06
-3.4722e-06
3.85875e-06
-2.40041e-06
-1.73659e-06
0.000696926
6.61994e-05
7.49981e-05
1.3068e-05
6.61993e-05
6.92393e-06
1.30679e-05
-3.34482e-06
6.92393e-06
-5.55586e-07
-3.34482e-06
5.96461e-06
-5.55586e-07
-2.40041e-06
5.96461e-06
-8.13442e-06
-2.40041e-06
-1.73659e-06
-8.13442e-06
-4.43203e-06
7.49981e-05
1.30679e-05
0.000443178
4.67402e-05
1.30679e-05
-3.34482e-06
4.67403e-05
5.77679e-06
-3.34482e-06
5.96461e-06
5.77679e-06
1.73024e-06
5.96461e-06
-8.13442e-06
1.73024e-06
-6.15021e-06
-8.13442e-06
-4.43203e-06
-6.15021e-06
-3.64262e-06
0.000352893
0.000551254
0.00119068
0.00140443
0.000551254
0.000443178
0.00140443
0.000804398
0.000443178
4.67403e-05
0.000804398
9.10414e-05
4.67403e-05
5.77679e-06
9.10414e-05
-1.09225e-06
5.77679e-06
1.73024e-06
-1.09225e-06
4.82301e-06
1.73024e-06
-6.15021e-06
4.82301e-06
-6.38102e-06
-6.15021e-06
-3.64262e-06
-6.38102e-06
-4.1515e-06
0.000804398
9.10414e-05
0.00088835
6.32444e-05
9.10414e-05
-1.09224e-06
6.32444e-05
2.71398e-05
-1.09225e-06
4.82301e-06
2.71398e-05
-7.0138e-06
4.82301e-06
-6.38102e-06
-7.0138e-06
-4.05703e-06
-6.38102e-06
-4.1515e-06
-4.05703e-06
-9.39277e-07
0.00088835
6.32444e-05
0.000649503
1.61432e-05
6.32444e-05
2.71398e-05
1.61432e-05
2.66474e-05
2.71399e-05
-7.0138e-06
2.66474e-05
-1.65274e-05
-7.0138e-06
-4.05703e-06
-1.65274e-05
1.18404e-05
-4.05703e-06
-9.39277e-07
1.18404e-05
7.7516e-06
0.00343958
-0.00250378
0.00266713
4.58302e-05
0.00150509
0.00133729
0.00237627
0.00170046
0.00237627
0.00170046
0.00233736
0.00146636
0.00133729
0.00088835
0.00170046
0.000809592
0.00170046
0.000809592
0.00146636
0.000649503
-0.00132792
-0.000188819
0.00143616
-0.00328609
-0.000188818
0.00150509
-0.00328609
0.00237627
-0.00328609
0.00237627
-0.00250378
0.00233736
0.00143616
-0.00328609
0.00343958
-0.00250378
0.00265109
-0.00132792
-0.00515082
0.00143616
-0.00515082
0.00143616
-0.0096186
0.00343958
0.00119068
0.00140443
0.00150509
0.00133729
0.00140443
0.000804398
0.00133729
0.00088835
-0.00131614
0.00151429
-0.00141078
0.00179029
-0.00141078
0.00179029
-0.00132792
-0.000188819
0.00151429
0.00119068
0.00179029
0.0011958
0.00179029
0.0011958
-0.000188819
0.00150509
-0.00619683
0.00307832
-0.00621957
0.00310888
0.00307832
-0.00131614
0.00310888
-0.00141078
0.00310888
-0.00141078
0.00265109
-0.00132792
-0.00131704
0.00101824
-0.00134286
0.0012714
-0.00134286
0.0012714
-0.00131614
0.00151429
0.00101824
0.000352893
0.0012714
0.000879839
0.0012714
0.000879839
0.00151429
0.00119068
-0.00553896
0.00280606
-0.00605532
0.00300435
0.00280606
-0.00131704
0.00300435
-0.00134286
0.00300435
-0.00134286
0.00307832
-0.00131614
-0.00605532
0.00300435
-0.00619683
0.00307832
0.0121762
-0.00553896
0.0143433
-0.00605532
9.93165e-05
0.000131048
0.000352893
0.000551254
0.000131048
7.49981e-05
0.000551254
0.000443178
-0.000739032
0.000727642
-0.000994544
0.000524746
-0.000994544
0.000524746
-0.00131704
0.00101824
0.000727642
9.93165e-05
0.000524746
-7.68332e-05
0.000524746
-7.68332e-05
0.00101824
0.000352893
-0.00348451
0.00175173
-0.00384895
0.00196763
0.00175173
-0.000739032
0.00196763
-0.000994544
0.00196763
-0.000994544
0.00280606
-0.00131704
-0.00384895
0.00196763
-0.00553896
0.00280606
0.00724025
-0.00348451
0.00875857
-0.00384895
0.00875857
-0.00384895
0.0121762
-0.00553896
0.00133775
0.0011542
0.000966279
0.000655344
0.000966279
0.000655344
9.93165e-05
0.000131048
0.0011542
0.000696926
0.000655344
0.000355238
0.000655344
0.000355238
0.000131048
7.49981e-05
-0.000890714
0.00182451
-0.000801429
0.00212462
0.00182451
0.00133775
0.00212462
0.000966279
0.00212462
0.000966279
0.000727642
9.93165e-05
-0.000801429
0.00212462
-0.000739032
0.000727642
-0.00515546
0.00252244
-0.00463367
0.0024348
0.00252244
-0.000890714
0.0024348
-0.000801429
0.0024348
-0.000801429
0.00175173
-0.000739032
-0.00463367
0.0024348
-0.00348451
0.00175173
0.0969128
0.0142324
0.0381715
0.0112206
0.0142324
-0.00515546
0.0112206
-0.00463367
0.0112206
-0.00463367
0.00724025
-0.00348451
0.0381715
0.0112206
0.0175858
0.00724025
0.00125857
0.000881137
0.00162443
0.00135271
0.00162443
0.00135271
0.00133775
0.0011542
0.000881137
0.00053578
0.00135271
0.000756455
0.00135271
0.000756455
0.0011542
0.000696926
0.00130906
-0.000580166
0.000806266
-7.70638e-05
-0.000580166
0.00125857
-7.70638e-05
0.00162443
-7.70638e-05
0.00162443
0.00182451
0.00133775
0.000806266
-7.70638e-05
-0.000890714
0.00182451
0.00875012
-0.00265735
0.0040495
-0.00168105
-0.00265735
0.00130906
-0.00168105
0.000806266
-0.00168105
0.000806266
0.00252244
-0.000890714
0.0040495
-0.00168105
-0.00515546
0.00252244
0.410761
0.0558261
0.308318
0.0264622
0.0558261
0.00875012
0.0264622
0.0040495
0.0264622
0.0040495
0.0142324
-0.00515546
0.308318
0.0264622
0.0969128
0.0142324
-0.000385656
-0.000332376
5.02559e-06
2.58254e-05
5.02559e-06
2.58254e-05
0.00125857
0.000881137
-0.000332376
-0.000106062
2.58254e-05
0.000159087
2.58254e-05
0.000159087
0.000881137
0.00053578
0.000338906
-0.000381956
0.000770729
-0.000330174
-0.000381956
-0.000385656
-0.000330174
5.02564e-06
-0.000330174
5.02561e-06
-0.000580166
0.00125857
0.000770729
-0.000330174
0.00130907
-0.000580166
-0.000802799
0.000338906
-0.00169495
0.000770729
-0.00169495
0.000770729
-0.00265735
0.00130906
0.00725719
-0.00169495
0.00875012
-0.00265735
0.0550384
0.00725719
0.0558261
0.00875012
0.000413694
0.00022263
7.63729e-05
-9.46089e-05
7.63729e-05
-9.46089e-05
-0.000385656
-0.000332376
0.00022263
6.67875e-05
-9.4609e-05
-6.19021e-05
-9.4609e-05
-6.19021e-05
-0.000332376
-0.000106062
0.000179596
0.000413694
-2.82598e-05
7.63729e-05
-2.82598e-05
7.63729e-05
-0.000381956