# vtk DataFile Version 2.0
Hex test
ASCII
DATASET UNSTRUCTURED_GRID
POINTS 5812 float
-6 14 0
-6 16 0
-2.16667 14 0
-2.16667 16 0
-6 16 0
-6 18 0
-2.16667 16 0
-2.16667 18 0
-6 18 0
-6 20 0
-2.16667 18 0
-2.16667 20 0
-6 20 0
-6 22 0
-2.16667 20 0
-2.16667 22 0
-6 22 0
-6 24 0
-2.16667 22 0
-2.16667 24 0
-6 24 0
-6 26 0
-2.16667 24 0
-2.16667 26 0
-6 26 0
-6 28 0
-2.16667 26 0
-2.16667 28 0
-2.16667 14 0
-2.16667 16 0
-2.77556e-17 14 0
-5.55112e-17 16 0
-2.16667 16 0
-2.16667 18 0
-2.77556e-17 16 0
-5.55112e-17 18 0
-2.16667 18 0
-2.16667 20 0
-2.77556e-17 18 0
-5.55112e-17 20 0
-2.16667 20 0
-2.16667 22 0
-2.77556e-17 20 0
-5.55112e-17 22 0
-2.16667 22 0
-2.16667 24 0
-2.77556e-17 22 0
-5.55112e-17 24 0
-2.16667 24 0
-2.16667 26 0
-2.77556e-17 24 0
-5.55112e-17 26 0
-2.16667 26 0
-2.16667 28 0
-2.77556e-17 26 0
-5.55112e-17 28 0
2.77556e-17 14 0
2.42861e-17 15 0
2 14 0
2 15 0
2.42861e-17 15 0
2.77556e-17 16 0
2 15 0
2 16 0
2.77556e-17 16 0
2.42861e-17 17 0
2 16 0
2 17 0
2.42861e-17 17 0
2.77556e-17 18 0
2 17 0
2 18 0
2.77556e-17 18 0
2.42861e-17 19 0
2 18 0
2 19 0
2.42861e-17 19 0
2.77556e-17 20 0
2 19 0
2 20 0
2.77556e-17 20 0
2.42861e-17 21 0
2 20 0
2 21 0
2.42861e-17 21 0
2.77556e-17 22 0
2 21 0
2 22 0
2.77556e-17 22 0
2.42861e-17 23 0
2 22 0
2 23 0
2.42861e-17 23 0
2.77556e-17 24 0
2 23 0
2 24 0
2.77556e-17 24 0
2.42861e-17 25 0
2 24 0
2 25 0
2.42861e-17 25 0
2.77556e-17 26 0
2 25 0
2 26 0
2.77556e-17 26 0
2.42861e-17 27 0
2 26 0
2 27 0
2.42861e-17 27 0
2.77556e-17 28 0
2 27 0
2 28 0
2 14 0
2 15 0
4 14 0
4 15 0
2 15 0
2 16 0
4 15 0
4 16 0
2 16 0
2 17 0
4 16 0
4 17 0
2 17 0
2 18 0
4 17 0
4 18 0
2 18 0
2 19 0
4 18 0
4 19 0
2 19 0
2 20 0
4 19 0
4 20 0
2 20 0
2 21 0
4 20 0
4 21 0
2 21 0
2 22 0
4 21 0
4 22 0
2 22 0
2 23 0
4 22 0
4 23 0
2 23 0
2 24 0
4 23 0
4 24 0
2 24 0
2 25 0
4 24 0
4 25 0
2 25 0
2 26 0
4 25 0
4 26 0
2 26 0
2 27 0
4 26 0
4 27 0
2 27 0
2 28 0
4 27 0
4 28 0
4 15 0
4 16 0
6 15 0
6 16 0
4 16 0
4 17 0
6 16 0
6 17 0
4 17 0
4 18 0
6 17 0
6 18 0
4 18 0
4 19 0
6 18 0
6 19 0
4 19 0
4 20 0
6 19 0
6 20 0
4 20 0
4 21 0
6 20 0
6 21 0
4 21 0
4 22 0
6 21 0
6 22 0
4 22 0
4 23 0
6 22 0
6 23 0
4 23 0
4 24 0
6 23 0
6 24 0
4 24 0
4 25 0
6 24 0
6 25 0
4 25 0
4 26 0
6 25 0
6 26 0
4 26 0
4 27 0
6 26 0
6 27 0
4 27 0
4 28 0
6 27 0
6 28 0
6 15 0
6 16 0
7 15 0
7 16 0
7 15 0
7 16 0
8 15 0
8 16 0
6 16 0
6 17 0
7 16 0
7 17 0
6 17 0
6 18 0
7 17 0
7 18 0
7 17 0
7 18 0
8 17 0
8 18 0
7 16 0
7 17 0
8 16 0
8 17 0
6 18 0
6 19 0
7 18 0
7 19 0
6 19 0
6 20 0
7 19 0
7 20 0
7 19 0
7 20 0
8 19 0
8 20 0
7 18 0
7 19 0
8 18 0
8 19 0
6 20 0
6 21 0
7 20 0
7 21 0
6 21 0
6 22 0
7 21 0
7 22 0
7 21 0
7 22 0
8 21 0
8 22 0
7 20 0
7 21 0
8 20 0
8 21 0
6 22 0
6 23 0
7 22 0
7 23 0
6 23 0
6 24 0
7 23 0
7 24 0
7 23 0
7 24 0
8 23 0
8 24 0
7 22 0
7 23 0
8 22 0
8 23 0
6 24 0
6 25 0
7 24 0
7 25 0
6 25 0
6 26 0
7 25 0
7 26 0
7 25 0
7 26 0
8 25 0
8 26 0
7 24 0
7 25 0
8 24 0
8 25 0
6 26 0
6 27 0
7 26 0
7 27 0
8 16 0
8 17 0
9 16 0
9 17 0
8 17 0
8 18 0
9 17 0
9 18 0
9 17 0
9 18 0
10 17 0
10 18 0
8 18 0
8 19 0
9 18 0
9 19 0
8 19 0
8 20 0
9 19 0
9 20 0
9 19 0
9 20 0
10 19 0
10 20 0
9 18 0
9 19 0
10 18 0
10 19 0
8 20 0
8 21 0
9 20 0
9 21 0
8 21 0
8 22 0
9 21 0
9 22 0
9 21 0
9 22 0
10 21 0
10 22 0
9 20 0
9 21 0
10 20 0
10 21 0
8 22 0
8 23 0
9 22 0
9 23 0
8 23 0
8 24 0
9 23 0
9 24 0
9 22 0
9 23 0
10 22 0
10 23 0
-6 0 0
-6 3.83333 0
-2.16667 0 0
-2.16667 3.83333 0
-6 3.83333 0
-6 6 0
-2.16667 3.83333 0
-2.16667 6 0
-6 6 0
-6 8 0
-2.16667 6 0
-2.16667 8 0
-6 8 0
-6 10 0
-2.16667 8 0
-2.16667 10 0
-6 10 0
-6 12 0
-2.16667 10 0
-2.16667 12 0
-6 12 0
-6 14 0
-2.16667 12 0
-2.16667 14 0
-2.16667 0 0
-2.16667 3.83333 0
0 0 0
4.16334e-17 3.83333 0
-2.16667 3.83333 0
-2.16667 6 0
-4.16334e-17 3.83333 0
-5.55112e-17 6 0
-2.16667 6 0
-2.16667 8 0
-2.77556e-17 6 0
-5.55112e-17 8 0
-2.16667 8 0
-2.16667 10 0
-2.77556e-17 8 0
-5.55112e-17 10 0
-2.16667 10 0
-2.16667 12 0
-2.77556e-17 10 0
-5.55112e-17 12 0
-2.16667 12 0
-2.16667 14 0
-2.77556e-17 12 0
-5.55112e-17 14 0
0 0 0
0 3.83333 0
2 0 0
2 3.83333 0
-1.38778e-17 3.83333 0
2.77556e-17 6 0
2 3.83333 0
2 6 0
2.77556e-17 6 0
2.77556e-17 8 0
2 6 0
2 8 0
2.77556e-17 8 0
2.77556e-17 10 0
2 8 0
2 10 0
2.77556e-17 10 0
2.77556e-17 12 0
2 10 0
2 12 0
2.77556e-17 12 0
2.42861e-17 13 0
2 12 0
2 13 0
2.42861e-17 13 0
2.77556e-17 14 0
2 13 0
2 14 0
2 0 0
2 3.83333 0
4 0 0
4 3.83333 0
2 3.83333 0
2 6 0
4 3.83333 0
4 6 0
2 6 0
2 8 0
4 6 0
4 8 0
2 8 0
2 9 0
4 8 0
4 9 0
2 9 0
2 10 0
4 9 0
4 10 0
2 10 0
2 11 0
4 10 0
4 11 0
2 11 0
2 12 0
4 11 0
4 12 0
2 12 0
2 13 0
4 12 0
4 13 0
2 13 0
2 14 0
4 13 0
4 14 0
4 0 0
4 3.83333 0
6 0 0
6 3.83333 0
4 3.83333 0
4 6 0
6 3.83333 0
6 6 0
4 6 0
4 7 0
6 6 0
6 7 0
4 7 0
4 8 0
6 7 0
6 8 0
4 8 0
4 9 0
6 8 0
6 9 0
4 9 0
4 10 0
6 9 0
6 10 0
4 10 0
4 11 0
6 10 0
6 11 0
4 11 0
4 12 0
6 11 0
6 12 0
6 0 0
6 3.83333 0
8 0 0
8 3.83333 0
6 3.83333 0
6 6 0
8 3.83333 0
8 6 0
6 6 0
6 7 0
8 6 0
8 7 0
6 7 0
6 8 0
8 7 0
8 8 0
8 0 0
8 3.83333 0
10 0 0
10 3.83333 0
8 3.83333 0
8 4.97917 0
10 3.83333 0
10 4.97917 0
8 4.97917 0
8 6 0
10 4.97917 0
10 6 0
4 12 0
4 13 0
6 12 0
6 13 0
4 13 0
4 14 0
6 13 0
6 14 0
4 14 0
4 15 0
6 14 0
6 15 0
6 8 0
6 9 0
8 8 0
8 9 0
6 9 0
6 10 0
8 9 0
8 10 0
6 10 0
6 11 0
8 10 0
8 11 0
6 11 0
6 12 0
8 11 0
8 12 0
6 12 0
6 13 0
7 12 0
7 13 0
7 12 0
7 13 0
8 12 0
8 13 0
6 13 0
6 14 0
7 13 0
7 14 0
7 13 0
7 14 0
8 13 0
8 14 0
6 14 0
6 15 0
7 14 0
7 15 0
7 14 0
7 15 0
8 14 0
8 15 0
8 6 0
8 7 0
10 6 0
10 7 0
8 7 0
8 8 0
10 7 0
10 8 0
8 8 0
8 9 0
9 8 0
9 9 0
9 8 0
9 9 0
10 8 0
10 9 0
8 9 0
8 10 0
9 9 0
9 10 0
9 9 0
9 10 0
10 9 0
10 10 0
8 10 0
8 11 0
9 10 0
9 11 0
8 11 0
8 12 0
9 11 0
9 12 0
9 11 0
9 12 0
10 11 0
10 12 0
9 10 0
9 11 0
10 10 0
10 11 0
8 12 0
8 13 0
9 12 0
9 13 0
8 13 0
8 14 0
9 13 0
9 14 0
9 13 0
9 14 0
10 13 0
10 14 0
9 12 0
9 13 0
10 12 0
10 13 0
8 14 0
8 15 0
9 14 0
9 15 0
8 15 0
8 16 0
9 15 0
9 16 0
9 15 0
9 16 0
10 15 0
10 16 0
9 14 0
9 15 0
10 14 0
10 15 0
10 7 0
10 8 0
11 7 0
11 8 0
11 7 0
11 8 0
12 7 0
12 8 0
10 8 0
10 9 0
11 8 0
11 9 0
10 9 0
10 10 0
11 9 0
11 10 0
11 9 0
11 10 0
12 9 0
12 10 0
11 8 0
11 9 0
12 8 0
12 9 0
10 10 0
10 11 0
11 10 0
11 11 0
10 11 0
10 12 0
11 11 0
11 12 0
11 11 0
11 12 0
12 11 0
12 12 0
11 10 0
11 11 0
12 10 0
12 11 0
10 12 0
10 13 0
11 12 0
11 13 0
10 13 0
10 14 0
11 13 0
11 14 0
11 13 0
11 14 0
12 13 0
12 14 0
11 12 0
11 13 0
12 12 0
12 13 0
10 14 0
10 15 0
11 14 0
11 15 0
12 9 0
12 10 0
13 9 0
13 10 0
12 10 0
12 11 0
13 10 0
13 11 0
12 11 0
12 12 0
13 11 0
13 12 0
12 12 0
12 13 0
13 12 0
13 13 0
10 0 0
10 3.83333 0
12 0 0
12 3.83333 0
10 3.83333 0
10 4.97917 0
12 3.83333 0
12 4.97917 0
10 4.97917 0
10 6 0
12 4.97917 0
12 6 0
12 0 0
12 3.83333 0
14 0 0
14 3.83333 0
14 0 0
14 3.83333 0
16 0 0
16 3.83333 0
16 0 0
16 3.83333 0
18 0 0
18 3.83333 0
18 0 0
18 3.83333 0
20 0 0
20 3.83333 0
20 0 0
20 3.83333 0
22 0 0
22 3.83333 0
10 6 0
10 7 0
11 6 0
11 7 0
11 6 0
11 7 0
12 6 0
12 7 0
12 3.83333 0
12 4.97917 0
14 3.83333 0
14 4.97917 0
12 4.97917 0
12 6 0
14 4.97917 0
14 6 0
12 6 0
12 7 0
13 6 0
13 7 0
13 6 0
13 7 0
14 6 0
14 7 0
12 7 0
12 8 0
13 7 0
13 8 0
13 7 0
13 8 0
14 7 0
14 8 0
12 8 0
12 9 0
13 8 0
13 9 0
13 9 0
13 10 0
14 9 0
14 10 0
13 8 0
13 9 0
14 8 0
14 9 0
13 11 0
13 12 0
14 11 0
14 12 0
13 10 0
13 11 0
14 10 0
14 11 0
14 3.83333 0
14 4.97917 0
15 3.83333 0
15 4.97917 0
15 3.83333 0
15 4.97917 0
16 3.83333 0
16 4.97917 0
14 4.97917 0
14 6 0
15 4.97917 0
15 6 0
15 4.97917 0
15 6 0
16 4.97917 0
16 6 0
14 6 0
14 7 0
15 6 0
15 7 0
14 7 0
14 8 0
15 7 0
15 8 0
15 7 0
15 8 0
16 7 0
16 8 0
15 6 0
15 7 0
16 6 0
16 7 0
14 8 0
14 9 0
15 8 0
15 9 0
14 9 0
14 10 0
15 9 0
15 10 0
15 9 0
15 10 0
16 9 0
16 10 0
15 8 0
15 9 0
16 8 0
16 9 0
14 10 0
14 11 0
15 10 0
15 11 0
14 11 0
14 12 0
15 11 0
15 12 0
15 11 0
15 12 0
16 11 0
16 12 0
15 10 0
15 11 0
16 10 0
16 11 0
16 3.83333 0
16 4.97917 0
17 3.83333 0
17 4.97917 0
17 3.83333 0
17 4.97917 0
18 3.83333 0
18 4.97917 0
16 4.97917 0
16 6 0
17 4.97917 0
17 6 0
17 4.97917 0
17 6 0
18 4.97917 0
18 6 0
16 6 0
16 7 0
17 6 0
17 7 0
16 7 0
16 8 0
17 7 0
17 8 0
17 7 0
17 8 0
18 7 0
18 8 0
17 6 0
17 7 0
18 6 0
18 7 0
16 8 0
16 9 0
17 8 0
17 9 0
16 9 0
16 10 0
17 9 0
17 10 0
17 9 0
17 10 0
18 9 0
18 10 0
17 8 0
17 9 0
18 8 0
18 9 0
16 10 0
16 11 0
17 10 0
17 11 0
16 11 0
16 12 0
17 11 0
17 12 0
17 11 0
17 12 0
18 11 0
18 12 0
17 10 0
17 11 0
18 10 0
18 11 0
18 3.83333 0
18 4.97917 0
19 3.83333 0
19 4.97917 0
19 3.83333 0
19 4.97917 0
20 3.83333 0
20 4.97917 0
18 4.97917 0
18 6 0
19 4.97917 0
19 6 0
19 4.97917 0
19 6 0
20 4.97917 0
20 6 0
18 6 0
18 7 0
19 6 0
19 7 0
18 7 0
18 8 0
19 7 0
19 8 0
19 7 0
19 8 0
20 7 0
20 8 0
19 6 0
19 7 0
20 6 0
20 7 0
18 8 0
18 9 0
19 8 0
19 9 0
18 9 0
18 10 0
19 9 0
19 10 0
19 9 0
19 10 0
20 9 0
20 10 0
19 8 0
19 9 0
20 8 0
20 9 0
18 10 0
18 11 0
19 10 0
19 11 0
18 11 0
18 12 0
19 11 0
19 12 0
19 11 0
19 12 0
20 11 0
20 12 0
19 10 0
19 11 0
20 10 0
20 11 0
20 3.83333 0
20 4.97917 0
21 3.83333 0
21 4.97917 0
21 3.83333 0
21 4.97917 0
22 3.83333 0
22 4.97917 0
20 4.97917 0
20 6 0
21 4.97917 0
21 6 0
21 4.97917 0
21 6 0
22 4.97917 0
22 6 0
20 6 0
20 7 0
21 6 0
21 7 0
20 7 0
20 8 0
21 7 0
21 8 0
21 7 0
21 8 0
22 7 0
22 8 0
21 6 0
21 7 0
22 6 0
22 7 0
20 8 0
20 9 0
21 8 0
21 9 0
20 9 0
20 10 0
21 9 0
21 10 0
21 9 0
21 10 0
22 9 0
22 10 0
21 8 0
21 9 0
22 8 0
22 9 0
20 10 0
20 11 0
21 10 0
21 11 0
21 10 0
21 11 0
22 10 0
22 11 0
22 6 0
22 7 0
23 6 0
23 7 0
22 7 0
22 8 0
23 7 0
23 8 0
22 8 0
22 9 0
23 8 0
23 9 0
22 9 0
22 10 0
23 9 0
23 10 0
22 10 0
22 11 0
23 10 0
23 11 0
14 20 0
14 21 0
16 20 0
16 21 0
14 21 0
14 22 0
16 21 0
16 22 0
14 22 0
14 23 0
16 22 0
16 23 0
14 23 0
14 24 0
16 23 0
16 24 0
16 18 0
16 19 0
18 18 0
18 19 0
16 19 0
16 20 0
18 19 0
18 20 0
16 20 0
16 21 0
18 20 0
18 21 0
16 21 0
16 22 0
18 21 0
18 22 0
16 22 0
16 23 0
18 22 0
18 23 0
16 23 0
16 24 0
18 23 0
18 24 0
18 16 0
18 17 0
20 16 0
20 17 0
18 17 0
18 18 0
20 17 0
20 18 0
18 18 0
18 19 0
20 18 0
20 19 0
18 19 0
18 20 0
20 19 0
20 20 0
18 20 0
18 22 0
20 20 0
20 22 0
18 22 0
18 24 0
20 22 0
20 24 0
20 14 0
20 15 0
22 14 0
[...]
POINT_DATA 5812
SCALARS phi float 1
LOOKUP_TABLE default
1.13711e-05
3.44974e-05
8.54113e-05
7.96416e-05
3.44974e-05
-9.35713e-05
7.96416e-05
-0.000266293
-9.35713e-05
-0.000464658
-0.000266293
2.31601e-05
-0.000464658
4.75829e-05
2.31601e-05
0.000225693
4.75829e-05
-7.78914e-05
0.000225693
0.000234806
-7.78914e-05
7.2036e-05
0.000234807
0.000265684
7.2036e-05
-0.000420021
0.000265684
-0.000127971
8.54113e-05
7.96417e-05
8.72232e-05
1.10098e-05
7.96416e-05
-0.000266293
1.10098e-05
-9.54981e-05
-0.000266293
2.31601e-05
-9.54982e-05
0.00138192
2.31602e-05
0.000225693
0.00138192
0.000165936
0.000225693
0.000234806
0.000165936
0.000544376
0.000234806
0.000265684
0.000544376
0.000149493
0.000265684
-0.000127971
0.000149493
0.00103929
8.72232e-05
0.000127816
-0.000633224
-0.000230385
0.000127816
1.10097e-05
-0.000230385
-1.16514e-05
1.10098e-05
-0.000240144
-1.16514e-05
0.000379664
-0.000240144
-9.54982e-05
0.000379664
0.000327965
-9.54981e-05
0.000773503
0.000327965
-0.000963472
0.000773503
0.00138192
-0.000963472
-0.00349283
0.00138192
0.000866697
-0.00349283
-0.00241829
0.000866697
0.000165936
-0.00241829
-0.000509245
0.000165936
0.000265887
-0.000509245
-0.000673818
0.000265887
0.000544376
-0.000673818
-0.00183104
0.000544376
0.000303327
-0.00183104
-0.000931343
0.000303327
0.000149493
-0.000931343
-0.000381564
0.000149493
0.000666331
-0.000381564
-0.00202395
0.000666331
0.00103929
-0.00202395
-0.00230046
-0.000633224
-0.000230385
-0.00037778
0.000830309
-0.000230385
-1.16515e-05
0.000830309
0.00011635
-1.16514e-05
0.000379664
0.00011635
-0.00151128
0.000379664
0.000327965
-0.00151128
-0.00163841
0.000327965
-0.000963473
-0.00163841
0.0035808
-0.000963473
-0.00349283
0.0035808
0.00578872
-0.00349283
-0.00241829
0.00578872
0.00394292
-0.00241829
-0.000509245
0.00394292
0.00168326
-0.000509245
-0.000673818
0.00168326
0.0021512
-0.000673818
-0.00183104
0.0021512
0.00277267
-0.00183104
-0.000931343
0.00277267
0.00233057
-0.000931343
-0.000381564
0.00233057
0.00184371
-0.000381564
-0.00202395
0.00184371
0.00275278
-0.00202395
-0.00230046
0.00275278
0.00409983
0.000830309
0.00011635
0.000400423
0.000834738
0.00011635
-0.00151128
0.000834738
-0.000610586
-0.00151128
-0.00163841
-0.000610586
0.000631369
-0.00163841
0.0035808
0.000631369
0.000615604
0.0035808
0.00578872
0.000615604
-0.000356122
0.00578872
0.00394292
-0.000356124
-0.000217671
0.00394292
0.00168326
-0.000217671
9.64314e-05
0.00168326
0.0021512
9.64311e-05
0.000168082
0.0021512
0.00277267
0.000168081
-0.000237929
0.00277267
0.00233057
-0.000237929
7.14019e-05
0.00233057
0.00184371
7.14023e-05
0.000211846
0.00184371
0.00275278
0.000211846
-0.000186961
0.00275278
0.00409983
-0.000186961
0.000492744
0.000400423
0.000834738
0.00906138
0.00269021
0.00906138
0.00269021
0.00359362
-0.0035346
0.000834738
-0.000610586
0.00269021
-0.0053459
-0.000610586
0.000631369
-0.0053459
-0.00204537
-0.0053459
-0.00204537
0.0140864
0.013686
0.00269021
-0.0053459
-0.0035346
0.0140864
0.000631369
0.000615604
-0.00204537
0.0122062
0.000615604
-0.000356123
0.0122062
0.0125151
0.0122062
0.0125151
0.0245699
0.0409172
-0.00204537
0.0122062
0.013686
0.0245699
-0.000356122
-0.000217671
0.0125151
0.00720883
-0.000217672
9.64313e-05
0.00720883
0.00221734
0.00720883
0.00221734
0.018167
0.000615284
0.0125151
0.00720883
0.0409172
0.018167
9.64313e-05
0.000168081
0.00221734
0.00370434
0.000168081
-0.000237929
0.00370434
0.00330571
0.00370434
0.00330571
0.00179005
0.00107874
0.00221734
0.00370434
0.000615284
0.00179005
-0.000237928
7.14018e-05
0.00330571
0.00353906
7.1402e-05
0.000211846
0.00353906
0.00305836
0.00353906
0.00305836
0.00101211
0.001573
0.00330571
0.00353906
0.00107874
0.00101211
0.000211846
-0.00018696
0.00305836
0.00392222
-0.0035346
0.0140864
0.0127058
0.0270419
0.0140864
0.013686
0.0270419
0.201851
0.0270419
0.201851
0.468331
0.811963
0.013686
0.0245699
0.201851
0.492376
0.0245699
0.0409172
0.492376
0.562729
0.492376
0.562729
0.947913
0.970132
0.201851
0.492376
0.811963
0.947913
0.0409172
0.018167
0.562729
0.405475
0.018167
0.000615285
0.405475
0.245049
0.405475
0.245049
0.925149
0.887364
0.562729
0.405475
0.970133
0.925149
0.000615285
0.00179005
0.245049
0.280178
0.00179005
0.00107874
0.280178
0.264328
0.245049
0.280178
0.887364
0.898746
5.15929e-06
5.17113e-06
1.28904e-06
1.43293e-06
5.17113e-06
-8.23056e-06
1.43293e-06
8.56678e-08
-8.23056e-06
1.10083e-05
8.56672e-08
3.64114e-06
1.10083e-05
-1.18946e-05
3.64114e-06
-5.11635e-06
-1.18946e-05
2.68939e-05
-5.11635e-06
9.82638e-06
2.68939e-05
1.13711e-05
9.82637e-06
8.54113e-05
1.28904e-06
1.43293e-06
-1.34699e-05
-1.32546e-05
1.43293e-06
8.56669e-08
-1.32546e-05
2.44632e-05
8.56677e-08
3.64114e-06
2.44632e-05
-2.72689e-05
3.64114e-06
-5.11635e-06
-2.72689e-05
2.75562e-05
-5.11634e-06
9.82638e-06
2.75562e-05
-6.52197e-05
9.82638e-06
8.54113e-05
-6.52197e-05
8.72232e-05
-1.34699e-05
-1.32546e-05
3.91807e-05
3.83726e-05
-1.32546e-05
2.44632e-05
3.83726e-05
-7.20773e-05
2.44632e-05
-2.7269e-05
-7.20773e-05
8.42662e-05
-2.72689e-05
2.75562e-05
8.42662e-05
-0.000104837
2.75562e-05
-6.52197e-05
-0.000104837
0.0002136
-6.52197e-05
-8.79096e-06
0.0002136
-0.000188935
-8.79096e-06
8.72232e-05
-0.000188935
-0.000633224
3.91807e-05
3.83726e-05
-6.12407e-05
-6.00371e-05
3.83726e-05
-7.20773e-05
-6.00371e-05
0.000118999
-7.20773e-05
8.42663e-05
0.000118999
-0.000101606
8.42662e-05
-4.41472e-05
-0.000101606
6.92974e-05
-4.41472e-05
-0.000104837
6.92974e-05
7.40538e-05
-0.000104837
0.000111692
7.40538e-05
-0.000166548
0.000111692
0.0002136
-0.000166548
-0.000105172
0.0002136
-0.000188935
-0.000105172
-0.00034217
-0.000188935
-0.000633224
-0.00034217
-0.00037778
-6.12407e-05
-6.00372e-05
3.48328e-05
3.56501e-05
-6.00372e-05
0.000118999
3.56501e-05
-5.16853e-05
0.000118999
-1.55266e-05
-5.16853e-05
3.18907e-05
-1.55266e-05
-0.000101606
3.18907e-05
0.000158011
-0.000101606
6.92974e-05
0.000158011
0.000188246
6.92974e-05
7.40538e-05
0.000188246
0.000105039
7.40538e-05
-0.000166548
0.000105039
-0.000121915
-0.000166548
-0.000105172
-0.000121915
0.000179341
3.48328e-05
3.56501e-05
-1.56058e-05
-1.71451e-05
3.56501e-05
-5.16853e-05
-1.71451e-05
0.000133424
-5.16853e-05
3.18908e-05
0.000133424
0.000346103
3.18908e-05
0.000158011
0.000346103
0.00029457
-1.56058e-05
-1.71451e-05
-6.86205e-05
-6.91494e-05
-1.71451e-05
6.79901e-06
-6.91494e-05
-6.60669e-05
6.79901e-06
0.000133424
-6.60669e-05
-0.000175972
-0.000105172
-0.00034217
0.00017934
0.000166721
-0.00034217
-0.00037778
0.000166721
-0.000126007
-0.00037778
0.000830309
-0.000126007
0.000400423
0.000158011
0.000188246
0.00029457
-0.000173936
0.000188246
0.000105039
-0.000173936
8.80268e-05
0.000105039
-0.000121915
8.80268e-05
-0.000212407
-0.000121915
0.00017934
-0.000212407
0.000102856
0.000179341
0.000166721
-0.000479056
-0.000506909
-0.000479056
-0.000506909
0.000102856
0.00149212
0.000166721
-0.000126007
-0.000506909
0.00302333
-0.000506909
0.00302333
0.00149212
0.00575154
-0.000126007
0.000400423
0.00302333
0.00906138
0.00302333
0.00906138
0.00575154
0.00359362
0.000133424
0.000346103
-0.000175972
-0.000356233
0.000346103
0.00029457
-0.000356233
0.000135719
0.00029457
-0.000173936
0.000110459
0.00112182
0.000110459
0.00112182
0.000135719
-0.000881776
-0.000173936
8.80267e-05
0.00112182
-7.96944e-05
0.00112182
-7.96944e-05
-0.000881776
-0.000638125
8.80268e-05
-0.000212407
-7.96943e-05
-0.000944661
-0.000212407
0.000102856
-0.000944661
0.000787929
-0.000944661
0.000787929
0.00313264
-0.00215183
-7.96943e-05
-0.000944661
-0.000638125
0.00313264
0.000102856
0.00149212
0.000787929
-0.000432649
0.00149212
0.00575154
-0.000432649
-0.00735
-0.000432649
-0.00735
-0.000114262
0.0161427
0.000787929
-0.000432649
-0.00215183
-0.000114262
0.00575154
0.00359362
-0.00735
0.00277732
0.00359362
-0.0035346
0.00277732
0.0127058
0.00277732
0.0127058
0.00595988
0.0838978
-0.00735
0.00277732
0.0161427
0.00595988
-0.000356232
0.000135719
0.000810255
0.000190718
0.000810255
0.000190718
8.57455e-05
-0.00079956
0.000135719
-0.000881776
0.000190718
-0.00340353
-0.000881776
-0.000638125
-0.00340353
0.00144292
-0.00340353
0.00144292
-0.000256548
-0.00182261
0.000190718
-0.00340353
-0.00079956
-0.000256548
-0.000638125
0.00313264
0.00144292
-0.00757164
0.00313264
-0.00215183
-0.00757164
0.007676
-0.00757164
0.007676
0.00967976
0.0156928
0.00144292
-0.00757164
-0.00182261
0.00967976
-0.00215183
-0.000114262
0.007676
0.0066774
-0.000114262
0.0161427
0.0066774
0.0365295
0.0066774
0.0365295
0.190628
0.588692
0.007676
0.0066774
0.0156928
0.190628
0.0161427
0.00595988
0.0365295
0.154505
-0.000256548
-0.00182261
-0.00104364
-0.00291094
-0.00182261
0.00967976
-0.00291094
0.00289806
0.00967976
0.0156928
0.00289806
0.200512
0.0156928
0.190628
0.200512
0.757696
-6.86205e-05
-6.91494e-05
0.000241288
0.000125036
-6.91494e-05
-6.60669e-05
0.000125036
-0.00091217
-6.60669e-05
-0.000175972
-0.00091217
-0.000415695
0.000241288
0.000125036
0.000125125
1.55532e-05
0.000125125
1.55533e-05
0.000235447
0.000134702
0.000235447
0.000134702
0.000884766
0.000411239
0.000884766
0.000411239
-0.0027923
-0.0013434
-0.0027923
-0.0013434
-0.000409641
-0.000200592
-0.000175972
-0.000356232
-0.000453807
0.000810255
-0.000453807
0.000810255
-0.000415695
8.57455e-05
0.000125036
-0.00091217
1.55532e-05
-0.000218771
-0.00091217
-0.000415695
-0.000218771
0.000413299
-0.000415695
8.57455e-05
0.000122711
-0.00177698
0.000122711
-0.00177698
0.000413299
-0.00162309
8.57456e-05
-0.00079956
-0.00177698
0.000583598
-0.00177698
0.000583598
-0.00162309
0.00293768
-0.00079956
-0.000256548
0.000583598
-0.00104364
-0.00104364
-0.00291094
-0.00554205
0.0127133
0.000583598
-0.00104364
0.00293768
-0.00554205
0.00289806
0.200512
0.053248
0.598664
-0.00291094
0.00289806
0.0127133
0.053248
1.55533e-05
-0.000218771
-2.60331e-05
-0.000147466
-2.60331e-05
-0.000147466
0.000134702
-0.000895005
-0.000218771
0.000413299
-0.000147466
-0.000312901
-0.000147466
-0.000312901
-0.000895005
-0.000570346
0.000413299
-0.00162309
-0.000312901
0.00149559
-0.00162309
0.00293768
0.00149559
0.0023073
0.00149559
0.0023073
0.000572213
-0.00498812
-0.000312901
0.00149559
-0.000570346
0.000572213
0.00293768
-0.00554205
0.0023073
-0.00389088
-0.00554205
0.0127133
-0.00389088
0.00355045
-0.00389088
0.00355045
0.0133448
0.105644
0.0023073
-0.00389088
-0.00498812
0.0133448
0.0127133
0.053248
0.00355045
0.0926952
0.053248
0.598664
0.0926952
0.682639
0.0926952
0.682639
0.572624
0.897485
0.00355045
0.0926952
0.105644
0.572624
0.000134702
-0.000895005
0.000501846
-0.000612555
0.000501846
-0.000612555
0.000411239
-0.000670271
-0.000895005
-0.000570346
-0.000612555
0.0032957
-0.000612555
0.0032957
-0.000670271
0.00290851
-0.000570346
0.000572213
0.0032957
-0.00687963
0.000572213
-0.00498812
-0.00687964
0.0152837
-0.00687964
0.0152837
-0.00668954
0.0193708
0.0032957
-0.00687963
0.00290851
-0.00668954
-0.00498812
0.0133448
0.0152837
0.0186232
0.0133448
0.105644
0.0186232
0.447862
0.0186232
0.447862
0.160615
0.770776
0.0152837
0.0186232
0.0193708
0.160615
0.105644
0.572624
0.447862
0.940169
0.572624
0.897485
0.940169
0.977225
0.940169
0.977225
0.97504
0.992547
0.447862
0.940169
0.770776
0.97504
0.000411239
-0.000670271
-0.000577735
0.000279358
-0.000577735
0.000279358
-0.0013434
0.00367405
-0.000670271
0.00290851
0.000279357
-0.00435289
0.000279357
-0.00435289
0.00367405
-0.00622673
0.00290851
-0.00668954
-0.00435289
0.00873628
-0.00668954
0.0193708
0.00873628
0.0225615
0.00873628
0.0225615
0.0103942
0.0212107
-0.00435289
0.00873628
-0.00622673
0.0103942
0.0193708
0.160615
0.0225615
0.451564
0.160615
0.770776
0.451564
0.941161
0.451564
0.941162
0.470104
0.952898
0.0225615
0.451564
0.0212107
0.470104
0.770776
0.97504
0.941161
0.987166
0.97504
0.992547
0.987166
1.0116
0.987166
1.0116
0.982275
1.01059
0.941161
0.987166
0.952898
0.982275
-0.0013434
0.00367405
-0.000879135
0.00268907
-0.000879135
0.00268907
-0.000200592
-3.49862e-06
0.00367405
-0.00622673
0.00268907
-0.00368036
0.00268907
-0.00368036
-3.49868e-06
-0.00160537
-0.00622673
0.0103942
-0.00368036
0.00610331
0.0103942
0.0212107
0.00610331
0.00223581
0.00610331
0.00223581
0.00339484
0.00295059
-0.00368036
0.00610331
-0.00160537
0.00339484
0.0212107
0.470104
0.00223581
0.298673
0.470104
0.952898
0.298673
0.914844
0.298673
0.914844
0.264641
0.894685
0.00223581
0.298673
0.00295059
0.264641
0.952898
0.982275
0.914844
0.984783
0.914844
0.984783
0.894685
0.988644
-0.00160537
0.00339484
-0.00214829
0.00417035
0.00339484
0.00295059
0.00417035
0.00129133
0.00295059
0.264641
0.00129133
0.267318
0.264641
0.894685
0.267318
0.901205
0.894685
0.988644
0.901205
0.987785
0.996129
0.997797
1.00218
1.00152
0.997797
0.998661
1.00152
1.00069
0.998661
0.998484
1.00069
1.0008
0.998484
0.998272
1.0008
1.00131
0.99947
1.00146
0.999726
0.99995
1.00146
1.00218
0.99995
0.998684
1.00218
1.00152
0.998684
0.99894
1.00152
1.00069
0.99894
0.9998
1.00069
1.0008
0.9998
0.999606
1.0008
1.00131
0.999606
0.999214
0.999747
0.999241
1.00011
1.00084
0.999241
0.999726
1.00084
0.999766
0.999726
0.99995
0.999766
1.00002
0.99995
0.998684
1.00002
1.00069
0.998684
0.9998
1.00069
1.00007
0.9998
0.999214
1.00007
1.00035
1.00374
0.998121
1.00096
0.999856
0.998121
1.00011
0.999856
0.999895
1.00011
1.00084
0.999895
1.00017
1.00084
0.999766
1.00017
0.999981
0.999766
1.00069
0.999981
0.999907
1.00069
1.00007
0.999907
0.999976
1.00007
1.00035
0.999976
0.999979
1.00035
1.00007
0.999979
1.00001
0.999895
0.999981
0.999411
1.00017
0.999981
0.999907
1.00017
0.999656
0.999907
0.999976
0.999656
0.999842
0.999976
0.999979
0.999842
0.999928
0.999979
1.00001
0.999928
0.999498
0.999842
0.999928
1.00043
1.00054
0.0127058
0.0270419
0.0838978
0.468331
0.00595988
0.0838978
0.154505
0.541944
0.154505
0.541944
0.687734
0.880781
0.0365295
0.154505
0.588692
0.687734
0.0838978
0.468331
0.541944
0.937407
0.468331
0.811963
0.937407
0.974563
0.937407
0.974563
0.979744
0.993849
0.541944
0.937407
0.880781
0.979744
0.811963
0.947913
0.974563
0.989242
0.947913
0.970133
0.989242
0.981273
0.989242
0.981273
1.00748
1.00067
0.974563
0.989242
0.993849
1.00748
0.970133
0.925149
0.981273
0.987868
0.925149
0.887364
0.987868
0.992728
0.987868
0.992728
1.0009
0.998504
0.981273
0.987868
1.00067
1.0009
0.190628
0.588692
0.757696
0.963365
0.757696
0.963365
0.960577
0.982267
0.200512
0.757696
0.598664
0.960577
0.588692
0.687734
0.963365
0.962234
0.687734
0.880781
0.962234
0.968768
0.962234
0.968768
1.0054
0.995075
0.963365
0.962234
0.982267
1.0054
0.880781
0.979744
0.968768
1.00886
0.979744
0.993849
1.00886
0.996828
1.00886
0.996828
1.00337
0.9994
0.968768
1.00886
0.995075
1.00337
0.993849
1.00748
0.996828
1.00703
0.996828
1.00703
0.9994
0.99766
1.00748
1.00067
1.00703
1.00748
1.00703
1.00748
0.99766
0.996129
1.00067
1.0009
0.996129
0.997797
1.0009
0.998504
0.997797
0.998661
0.598664
0.960577
0.682639
0.974529
0.960577
0.982267
0.974529
1.00376
0.974529
1.00376
0.976634
0.993869
0.682639
0.974529
0.897485
0.976634
0.982267
1.0054
1.00376
1.00579
1.0054
0.995075
1.00579
0.996819
1.00579
0.996819
1.00036
0.998831
1.00376
1.00579
0.993869
1.00036
0.995075
1.00337
0.996819
0.997428
0.996819
0.997428
0.998831
1.0019
1.00337
0.9994
0.997428
1.00019
0.997428
1.00019
1.0019
0.99947
0.9994
0.99766
0.99947
1.00146
0.99766
0.996129
1.00146
1.00218
0.897485
0.976634
0.977225
1.01026
0.976634
0.993869
1.01026
0.997738
1.01026
0.997738
1.00309
0.99875
0.977225
1.01026
0.992547
1.00309
0.993869
1.00036
0.997738
0.999638
0.997738
0.999638
0.99875
1.00135
1.00036
0.99883
0.999638
0.999997
0.999638
0.999997
1.00135
0.999747
0.998831
1.0019
0.999747
0.999241
1.0019
0.99947
0.999241
0.999726
0.992547
1.00309
1.0116
0.993991
1.0116
0.993991
1.01059
0.992623
1.00309
0.99875
0.993991
1.00092
0.993991
1.00092
0.992623
1.00374
0.99875
1.00135
1.00374
0.998121
1.00135
0.999747
0.998121
1.00011
-0.000409641
-0.000200592
-0.00140445
-0.000672442
-0.00140445
-0.000672442
-0.00032066
-0.000156758
-0.00032066
-0.000156758
-0.00341885
-0.00164941
-0.00341885
-0.00164941
0.000324437
0.000139834
0.000324437
0.000139835
0.000457005
0.000234374
0.000457005
0.000234374
0.000109566
4.40733e-05
0.000109566
4.40733e-05
9.36643e-06
4.835e-06
9.36643e-06
4.835e-06
-7.24508e-05
-9.32667e-05
0.00041131
0.000457328
9.64741e-05
0.00106731
0.000457328
0.0025733
0.00106731
-0.000146726
9.64741e-05
0.00106731
4.15589e-05
0.000372137
4.40733e-05
-0.000118332
3.06977e-05
-0.00021141
3.06977e-05
-0.00021141
4.83499e-06
-1.53611e-05
-0.000118332
0.00041131
-0.00021141
9.64741e-05
-0.00021141
9.64741e-05
-1.53611e-05
4.15589e-05
0.172464
0.673071
0.00339632
0.0684464
-0.00356707
0.0166156
0.00334346
-0.00527445
0.0166156
0.172464
-0.00527445
0.00339632
-0.00527445
0.00339632
-0.00417563
0.0141784
0.00334346
-0.00527445
0.0025733
-0.00417563
-0.000110689
0.00138653
0.000695975
-0.00123755
0.00138653
-0.00356707
-0.00123755
0.00334346
-0.00123755
0.00334346
0.000457328
0.0025733
0.000695975
-0.00123755
0.00041131
0.000457328
0.000234374
-0.00137454
8.91167e-05
-7.60716e-05
8.91167e-05
-7.60716e-05
4.40733e-05
-0.000118332
-0.00137454
-0.000110689
-7.60716e-05
0.000695975
-7.60716e-05
0.000695975
-0.000118332
0.00041131
0.828628
0.982472
0.548123
0.952184
0.548123
0.952184
0.172464
0.673071
0.016822
0.240722
0.017749
0.0470911
0.240722
0.828628
0.0470911
0.548123
0.0470911
0.548123
0.0166156
0.172464
0.017749
0.0470911
-0.00356707
0.0166156
0.00101045
-0.00275955
0.00367706
-0.00839929
-0.00275955
0.016822
-0.00839929
0.017749
-0.00839929
0.017749
0.00138653
-0.00356707
0.00367706
-0.00839929
-0.000110689
0.00138653
0.000139835
-0.000402706
0.000431466
-8.36499e-05
0.000431466
-8.36499e-05
0.000234374
-0.00137454
-0.000402705
0.00101045
-8.365e-05
0.00367706
-8.365e-05
0.00367706
-0.00137454
-0.000110689
0.967406
0.984357
0.958149
0.989169
0.958149
0.989169
0.828628
0.982472
0.0113433
0.513965
0.0324454
0.536399
0.513965
0.967405
0.536399
0.958149
0.536399
0.958149
0.240722
0.828628
0.0324454
0.536399
0.016822
0.240722
-0.00848011
0.0152226
-0.00554647
0.0098146
0.0152226
0.0113433
0.0098146
0.0324454
0.0098146
0.0324454
-0.00275955
0.016822
-0.00554647
0.0098146
0.00101045
-0.00275955
-0.00164941
0.00390886
-0.000939786
0.00157661
-0.000939786
0.00157661
0.000139835
-0.000402705
0.00390886
-0.00848011
0.00157661
-0.00554647
0.00157661
-0.00554647
-0.000402706
0.00101045
0.893447
0.990183
0.916666
0.982277
0.916666
0.982277
0.967405
0.984357
0.00249733
0.267525
0.0015052
0.282446
0.267525
0.893447
0.282446
0.916666
0.282446
0.916666
0.513965
0.967405
0.0015052
0.282446
0.0113433
0.513965
-0.00162992
0.00365136
-0.0035895
0.00541444
0.00365136
0.00249734
0.00541444
0.0015052
0.00541444
0.0015052
0.0152226
0.0113433
-0.0035895
0.00541444
-0.00848011
0.0152226
-0.000156759
-0.000273738
-0.0010027
0.00346676
-0.0010027
0.00346676
-0.00164941
0.00390886
-0.000273738
-0.00162992
0.00346676
-0.0035895
0.00346676
-0.0035895
0.00390886
-0.00848011
0.897281
0.98877
0.900285
0.987878
0.00257559
0.266626
0.0017084
0.264793
0.266626
0.897281
0.264793
0.900285
0.264793
0.900285
0.267525
0.893447
0.0017084
0.264793
0.00249733
0.267525
-0.00254844
0.00399663
-0.00193652
0.00387479
0.00399663
0.00257559
0.00387479
0.0017084
0.00387479
0.0017084
0.00365136
0.00249733
-0.00193652
0.00387479
-0.00162992
0.00365136
-0.000200592
-3.49859e-06
-0.000377402
0.00070326
-0.000377402
0.00070326
-0.000672442
0.00220857
-3.4985e-06
-0.00160537
0.00070326
-0.00214829
0.00070326
-0.00214829
0.00220857
-0.00254844
0.00417035
0.00129133
0.00399663
0.00257559
-0.00214829
0.00417036
-0.00254844
0.00399663
0.267318
0.901205
0.266626
0.897281
0.00129133
0.267318
0.00257559
0.266626
-0.000672442
0.00220857
-0.000308783
0.000455436
-0.000308783
0.000455436
-0.000156759
-0.000273738
0.00220857
-0.00254844
0.000455436
-0.00193652
0.000455436
-0.00193652
-0.000273738
-0.00162992
-7.24508e-05
-9.32667e-05
-1.68249e-05
-1.96411e-05
-9.32667e-05
1.39876e-06
-1.96411e-05
1.26905e-05
1.39876e-06
-0.000155702
1.26905e-05
-3.23428e-05
-1.68249e-05
-1.96411e-05
-3.54637e-06
-2.978e-06
-1.96411e-05
1.26905e-05
-2.978e-06
2.40208e-06
1.26905e-05
-3.23428e-05