# vtk DataFile Version 2.0
Hex test
ASCII
DATASET UNSTRUCTURED_GRID
POINTS 8936 float
38 46 0
38 47 0
40 46 0
40 47 0
38 47 0
38 48 0
40 47 0
40 48 0
38 48 0
38 50 0
40 48 0
40 50 0
38 50 0
38 52 0
40 50 0
40 52 0
38 52 0
38 54 0
40 52 0
40 54 0
38 54 0
38 56.1667 0
40 54 0
40 56.1667 0
38 56.1667 0
38 60 0
40 56.1667 0
40 60 0
40 46 0
40 47 0
42 46 0
42 47 0
40 47 0
40 48 0
42 47 0
42 48 0
40 48 0
40 50 0
42 48 0
42 50 0
40 50 0
40 52 0
42 50 0
42 52 0
40 52 0
40 54 0
42 52 0
42 54 0
40 54 0
40 56.1667 0
42 54 0
42 56.1667 0
40 56.1667 0
40 60 0
42 56.1667 0
42 60 0
42 44 0
42 45 0
44 44 0
44 45 0
42 45 0
42 46 0
44 45 0
44 46 0
42 46 0
42 48 0
44 46 0
44 48 0
42 48 0
42 50 0
44 48 0
44 50 0
42 50 0
42 52 0
44 50 0
44 52 0
42 52 0
42 54 0
44 52 0
44 54 0
42 54 0
42 56.1667 0
44 54 0
44 56.1667 0
42 56.1667 0
42 60 0
44 56.1667 0
44 60 0
44 40 0
44 41 0
46 40 0
46 41 0
44 41 0
44 42 0
46 41 0
46 42 0
44 42 0
44 43 0
46 42 0
46 43 0
44 43 0
44 44 0
46 43 0
46 44 0
44 44 0
44 45 0
46 44 0
46 45 0
44 45 0
44 46 0
46 45 0
46 46 0
44 46 0
44 48 0
46 46 0
46 48 0
44 48 0
44 50 0
46 48 0
46 50 0
44 50 0
44 52 0
46 50 0
46 52 0
44 52 0
44 54 0
46 52 0
46 54 0
44 54 0
44 56.1667 0
46 54 0
46 56.1667 0
44 56.1667 0
44 60 0
46 56.1667 0
46 60 0
46 40 0
46 41 0
48 40 0
48 41 0
46 41 0
46 42 0
48 41 0
48 42 0
46 42 0
46 43 0
48 42 0
48 43 0
46 43 0
46 44 0
48 43 0
48 44 0
46 44 0
46 46 0
48 44 0
48 46 0
46 46 0
46 48 0
48 46 0
48 48 0
46 48 0
46 50 0
48 48 0
48 50 0
46 50 0
46 52 0
48 50 0
48 52 0
46 52 0
46 54 0
48 52 0
48 54 0
46 54 0
46 56.1667 0
48 54 0
48 56.1667 0
46 56.1667 0
46 60 0
48 56.1667 0
48 60 0
48 40 0
48 42 0
50 40 0
50 42 0
48 42 0
48 44 0
50 42 0
50 44 0
48 44 0
48 46 0
50 44 0
50 46 0
48 46 0
48 48 0
50 46 0
50 48 0
48 48 0
48 50 0
50 48 0
50 50 0
48 50 0
48 52 0
50 50 0
50 52 0
48 52 0
48 54 0
50 52 0
50 54 0
48 54 0
48 56.1667 0
50 54 0
50 56.1667 0
48 56.1667 0
48 60 0
50 56.1667 0
50 60 0
50 42 0
50 44 0
52 42 0
52 44 0
50 44 0
50 46 0
52 44 0
52 46 0
50 46 0
50 48 0
52 46 0
52 48 0
50 48 0
50 50 0
52 48 0
52 50 0
50 50 0
50 52 0
52 50 0
52 52 0
50 52 0
50 54 0
52 52 0
52 54 0
50 54 0
50 56.1667 0
52 54 0
52 56.1667 0
50 56.1667 0
50 60 0
52 56.1667 0
52 60 0
52 42 0
52 44 0
54 42 0
54 44 0
52 44 0
52 46 0
54 44 0
54 46 0
52 46 0
52 48 0
54 46 0
54 48 0
52 48 0
52 50 0
54 48 0
54 50 0
52 50 0
52 52 0
54 50 0
54 52 0
52 52 0
52 54 0
54 52 0
54 54 0
52 54 0
52 56.1667 0
54 54 0
54 56.1667 0
52 56.1667 0
52 60 0
54 56.1667 0
54 60 0
54 42 0
54 44 0
56.1667 42 0
56.1667 44 0
54 44 0
54 46 0
56.1667 44 0
56.1667 46 0
54 46 0
54 48 0
56.1667 46 0
56.1667 48 0
54 48 0
54 50 0
56.1667 48 0
56.1667 50 0
54 50 0
54 52 0
56.1667 50 0
56.1667 52 0
54 52 0
54 54 0
56.1667 52 0
56.1667 54 0
54 54 0
54 56.1667 0
56.1667 54 0
56.1667 56.1667 0
54 56.1667 0
54 60 0
56.1667 56.1667 0
56.1667 60 0
56.1667 44 0
56.1667 46 0
60 44 0
60 46 0
56.1667 46 0
56.1667 48 0
60 46 0
60 48 0
56.1667 48 0
56.1667 50 0
60 48 0
60 50 0
56.1667 50 0
56.1667 52 0
60 50 0
60 52 0
56.1667 52 0
56.1667 54 0
60 52 0
60 54 0
56.1667 54 0
56.1667 56.1667 0
60 54 0
60 56.1667 0
56.1667 56.1667 0
56.1667 60 0
60 56.1667 0
60 60 0
44 39 0
44 40 0
46 39 0
46 40 0
42 42 0
42 43 0
44 42 0
44 43 0
42 43 0
42 44 0
44 43 0
44 44 0
42 40 0
42 41 0
44 40 0
44 41 0
42 41 0
42 42 0
44 41 0
44 42 0
42 38 0
42 39 0
43 38 0
43 39 0
43 38 0
43 39 0
44 38 0
44 39 0
42 39 0
42 40 0
43 39 0
43 40 0
43 39 0
43 40 0
44 39 0
44 40 0
40 44 0
40 45 0
42 44 0
42 45 0
40 45 0
40 46 0
42 45 0
42 46 0
40 42 0
40 43 0
41 42 0
41 43 0
41 42 0
41 43 0
42 42 0
42 43 0
40 43 0
40 44 0
41 43 0
41 44 0
41 43 0
41 44 0
42 43 0
42 44 0
40 40 0
40 41 0
41 40 0
41 41 0
40 41 0
40 42 0
41 41 0
41 42 0
41 41 0
41 42 0
42 41 0
42 42 0
41 40 0
41 41 0
42 40 0
42 41 0
40 38 0
40 39 0
41 38 0
41 39 0
40 39 0
40 40 0
41 39 0
41 40 0
41 39 0
41 40 0
42 39 0
42 40 0
41 38 0
41 39 0
42 38 0
42 39 0
40 37 0
40 38 0
41 37 0
41 38 0
38 44 0
38 45 0
39 44 0
39 45 0
39 44 0
39 45 0
40 44 0
40 45 0
38 45 0
38 46 0
39 45 0
39 46 0
39 45 0
39 46 0
40 45 0
40 46 0
38 42 0
38 43 0
39 42 0
39 43 0
38 43 0
38 44 0
39 43 0
39 44 0
39 43 0
39 44 0
40 43 0
40 44 0
39 42 0
39 43 0
40 42 0
40 43 0
38 40 0
38 41 0
39 40 0
39 41 0
38 41 0
38 42 0
39 41 0
39 42 0
39 41 0
39 42 0
40 41 0
40 42 0
39 40 0
39 41 0
40 40 0
40 41 0
38 39 0
38 40 0
39 39 0
39 40 0
39 39 0
39 40 0
40 39 0
40 40 0
39 38 0
39 39 0
40 38 0
40 39 0
36 46 0
36 47 0
38 46 0
38 47 0
36 47 0
36 48 0
38 47 0
38 48 0
36 44 0
36 45 0
37 44 0
37 45 0
37 44 0
37 45 0
38 44 0
38 45 0
36 45 0
36 46 0
37 45 0
37 46 0
37 45 0
37 46 0
38 45 0
38 46 0
36 42 0
36 43 0
37 42 0
37 43 0
36 43 0
36 44 0
37 43 0
37 44 0
37 43 0
37 44 0
38 43 0
38 44 0
37 42 0
37 43 0
38 42 0
38 43 0
36 41 0
36 42 0
37 41 0
37 42 0
37 41 0
37 42 0
38 41 0
38 42 0
37 40 0
37 41 0
38 40 0
38 41 0
35 44 0
35 45 0
36 44 0
36 45 0
34 43 0
34 44 0
35 43 0
35 44 0
35 43 0
35 44 0
36 43 0
36 44 0
35 42 0
35 43 0
36 42 0
36 43 0
35 41 0
35 42 0
36 41 0
36 42 0
46 26 0
46 27 0
48 26 0
48 27 0
46 27 0
46 28 0
48 27 0
48 28 0
46 28 0
46 29 0
48 28 0
48 29 0
46 29 0
46 30 0
48 29 0
48 30 0
46 30 0
46 31 0
48 30 0
48 31 0
46 31 0
46 32 0
48 31 0
48 32 0
46 32 0
46 33 0
48 32 0
48 33 0
46 33 0
46 34 0
48 33 0
48 34 0
46 34 0
46 35 0
48 34 0
48 35 0
46 35 0
46 36 0
48 35 0
48 36 0
46 36 0
46 37 0
48 36 0
48 37 0
46 37 0
46 38 0
48 37 0
48 38 0
46 38 0
46 39 0
48 38 0
48 39 0
46 39 0
46 40 0
48 39 0
48 40 0
48 26 0
48 27 0
50 26 0
50 27 0
48 27 0
48 28 0
50 27 0
50 28 0
48 28 0
48 29 0
50 28 0
50 29 0
48 29 0
48 30 0
50 29 0
50 30 0
48 30 0
48 31 0
50 30 0
50 31 0
48 31 0
48 32 0
50 31 0
50 32 0
48 32 0
48 33 0
50 32 0
50 33 0
48 33 0
48 34 0
50 33 0
50 34 0
48 34 0
48 35 0
50 34 0
50 35 0
48 35 0
48 36 0
50 35 0
50 36 0
48 36 0
48 37 0
50 36 0
50 37 0
48 37 0
48 38 0
50 37 0
50 38 0
48 38 0
48 39 0
50 38 0
50 39 0
48 39 0
48 40 0
50 39 0
50 40 0
50 26 0
50 28 0
52 26 0
52 28 0
50 28 0
50 30 0
52 28 0
52 30 0
50 30 0
50 32 0
52 30 0
52 32 0
50 32 0
50 34 0
52 32 0
52 34 0
50 34 0
50 36 0
52 34 0
52 36 0
50 36 0
50 38 0
52 36 0
52 38 0
50 38 0
50 40 0
52 38 0
52 40 0
50 40 0
50 42 0
52 40 0
52 42 0
52 26 0
52 28 0
54 26 0
54 28 0
52 28 0
52 30 0
54 28 0
54 30 0
52 30 0
52 32 0
54 30 0
54 32 0
52 32 0
52 34 0
54 32 0
54 34 0
52 34 0
52 36 0
54 34 0
54 36 0
52 36 0
52 38 0
54 36 0
54 38 0
52 38 0
52 40 0
54 38 0
54 40 0
52 40 0
52 42 0
54 40 0
54 42 0
54 26 0
54 28 0
56.1667 26 0
56.1667 28 0
54 28 0
54 30 0
56.1667 28 0
56.1667 30 0
54 30 0
54 32 0
56.1667 30 0
56.1667 32 0
54 32 0
54 34 0
56.1667 32 0
56.1667 34 0
54 34 0
54 36 0
56.1667 34 0
56.1667 36 0
54 36 0
54 38 0
56.1667 36 0
56.1667 38 0
54 38 0
54 40 0
56.1667 38 0
56.1667 40 0
54 40 0
54 42 0
56.1667 40 0
56.1667 42 0
56.1667 26 0
56.1667 28 0
60 26 0
60 28 0
56.1667 28 0
56.1667 30 0
60 28 0
60 30 0
56.1667 30 0
56.1667 32 0
60 30 0
60 32 0
56.1667 32 0
56.1667 34 0
60 32 0
60 34 0
56.1667 34 0
56.1667 36 0
60 34 0
60 36 0
56.1667 36 0
56.1667 38 0
60 36 0
60 38 0
56.1667 38 0
56.1667 40 0
60 38 0
60 40 0
56.1667 40 0
56.1667 42 0
60 40 0
60 42 0
56.1667 42 0
56.1667 44 0
60 42 0
60 44 0
44 38 0
44 39 0
46 38 0
46 39 0
44 36 0
44 37 0
46 36 0
46 37 0
44 37 0
44 38 0
46 37 0
46 38 0
44 34 0
44 35 0
46 34 0
46 35 0
44 35 0
44 36 0
46 35 0
46 36 0
44 32 0
44 33 0
46 32 0
46 33 0
44 33 0
44 34 0
46 33 0
46 34 0
44 30 0
44 31 0
46 30 0
46 31 0
44 31 0
44 32 0
46 31 0
46 32 0
44 28 0
44 29 0
46 28 0
46 29 0
44 29 0
44 30 0
46 29 0
46 30 0
44 26 0
44 27 0
46 26 0
46 27 0
44 27 0
44 28 0
46 27 0
46 28 0
44 24 0
44 25 0
46 24 0
46 25 0
44 25 0
44 26 0
46 25 0
46 26 0
42 36 0
42 37 0
43 36 0
43 37 0
42 37 0
42 38 0
43 37 0
43 38 0
43 37 0
43 38 0
44 37 0
44 38 0
43 36 0
43 37 0
44 36 0
44 37 0
42 34 0
42 35 0
43 34 0
43 35 0
42 35 0
42 36 0
43 35 0
43 36 0
43 35 0
43 36 0
44 35 0
44 36 0
43 34 0
43 35 0
44 34 0
44 35 0
42 32 0
42 33 0
43 32 0
43 33 0
42 33 0
42 34 0
43 33 0
43 34 0
43 33 0
43 34 0
44 33 0
44 34 0
43 32 0
43 33 0
44 32 0
44 33 0
42 30 0
42 31 0
43 30 0
43 31 0
42 31 0
42 32 0
43 31 0
43 32 0
43 31 0
43 32 0
44 31 0
44 32 0
43 30 0
43 31 0
44 30 0
44 31 0
42 28 0
42 29 0
43 28 0
43 29 0
42 29 0
42 30 0
43 29 0
43 30 0
43 29 0
43 30 0
44 29 0
44 30 0
43 28 0
43 29 0
44 28 0
44 29 0
42 26 0
42 27 0
43 26 0
43 27 0
42 27 0
42 28 0
43 27 0
43 28 0
43 27 0
43 28 0
44 27 0
44 28 0
43 26 0
43 27 0
44 26 0
44 27 0
42 24 0
42 25 0
43 24 0
43 25 0
42 25 0
42 26 0
43 25 0
43 26 0
43 25 0
43 26 0
44 25 0
44 26 0
41 37 0
41 38 0
42 37 0
42 38 0
41 36 0
41 37 0
42 36 0
42 37 0
40 34 0
40 35 0
41 34 0
41 35 0
40 35 0
40 36 0
41 35 0
41 36 0
41 35 0
41 36 0
42 35 0
42 36 0
41 34 0
41 35 0
42 34 0
42 35 0
40 32 0
40 33 0
41 32 0
41 33 0
40 33 0
40 34 0
41 33 0
41 34 0
41 33 0
41 34 0
42 33 0
42 34 0
41 32 0
41 33 0
42 32 0
42 33 0
40 30 0
40 31 0
41 30 0
41 31 0
40 31 0
40 32 0
41 31 0
41 32 0
41 31 0
41 32 0
42 31 0
42 32 0
41 30 0
41 31 0
42 30 0
42 31 0
40 28 0
40 29 0
41 28 0
41 29 0
40 29 0
40 30 0
41 29 0
41 30 0
41 29 0
41 30 0
42 29 0
42 30 0
41 28 0
41 29 0
42 28 0
42 29 0
40 26 0
40 27 0
41 26 0
41 27 0
40 27 0
40 28 0
41 27 0
41 28 0
41 27 0
41 28 0
42 27 0
42 28 0
41 26 0
41 27 0
42 26 0
42 27 0
40 24 0
40 25 0
41 24 0
41 25 0
40 25 0
40 26 0
41 25 0
41 26 0
41 25 0
41 26 0
42 25 0
42 26 0
41 24 0
41 25 0
42 24 0
42 25 0
39 29 0
39 30 0
40 29 0
40 30 0
39 28 0
39 29 0
40 28 0
40 29 0
38 26 0
38 27 0
39 26 0
39 27 0
39 27 0
39 28 0
40 27 0
40 28 0
39 26 0
39 27 0
40 26 0
40 27 0
39 25 0
39 26 0
40 25 0
40 26 0
24 46 0
24 47 0
26 46 0
26 47 0
24 47 0
24 48 0
26 47 0
26 48 0
24 48 0
24 50 0
26 48 0
26 50 0
24 50 0
24 52 0
26 50 0
26 52 0
26 48 0
26 50 0
28 48 0
28 50 0
26 50 0
26 52 0
28 50 0
28 52 0
26 52 0
26 54 0
28 52 0
28 54 0
26 54 0
26 56.1667 0
28 54 0
28 56.1667 0
26 56.1667 0
26 60 0
28 56.1667 0
28 60 0
28 48 0
28 50 0
30 48 0
30 50 0
28 50 0
28 52 0
30 50 0
30 52 0
28 52 0
28 54 0
30 52 0
30 54 0
28 54 0
28 56.1667 0
30 54 0
30 56.1667 0
28 56.1667 0
28 60 0
30 56.1667 0
30 60 0
30 48 0
30 50 0
32 48 0
32 50 0
30 50 0
[...]
POINT_DATA 8936
SCALARS phi float 1
LOOKUP_TABLE default
7.92233e-06
3.75103e-06
1.09536e-06
-2.57923e-06
3.75103e-06
2.01499e-06
-2.57923e-06
-3.28887e-06
2.01499e-06
-1.26882e-07
-3.28887e-06
2.37683e-07
-1.26882e-07
4.7999e-07
2.37683e-07
-4.20194e-08
4.7999e-07
-2.20288e-07
-4.20194e-08
6.71578e-08
-2.20288e-07
1.82201e-07
6.71578e-08
4.22446e-08
1.82201e-07
1.82788e-07
4.22446e-08
9.93497e-09
1.09536e-06
-2.57923e-06
7.13702e-07
-1.74478e-06
-2.57923e-06
-3.28887e-06
-1.74478e-06
-1.01239e-06
-3.28887e-06
2.37683e-07
-1.01239e-06
3.87461e-07
2.37683e-07
-4.20194e-08
3.87461e-07
-1.11402e-07
-4.20195e-08
6.71578e-08
-1.11402e-07
7.60512e-08
6.71578e-08
4.22446e-08
7.60512e-08
-7.00399e-08
4.22446e-08
9.93497e-09
-7.004e-08
-4.67958e-08
1.4834e-05
7.49664e-06
7.80948e-06
3.25019e-06
7.49664e-06
7.13702e-07
3.25019e-06
1.44409e-06
7.13702e-07
-1.01239e-06
1.44409e-06
7.74027e-08
-1.01239e-06
3.87461e-07
7.74027e-08
6.71961e-08
3.87461e-07
-1.11402e-07
6.71961e-08
1.42328e-08
-1.11402e-07
7.60512e-08
1.42328e-08
3.56482e-08
7.60512e-08
-7.00399e-08
3.56482e-08
-5.90521e-08
-7.00399e-08
-4.67958e-08
-5.90521e-08
4.77421e-09
-2.11563e-05
-3.20769e-05
-1.14778e-05
-8.05104e-06
-3.20769e-05
5.00571e-06
-8.05104e-06
-1.87323e-06
5.00571e-06
1.81225e-05
-1.87323e-06
1.83258e-06
1.81225e-05
7.80948e-06
1.83258e-06
2.44335e-06
7.80948e-06
3.25019e-06
2.44335e-06
8.53845e-07
3.25019e-06
1.44409e-06
8.53845e-07
-7.92332e-07
1.44409e-06
7.74027e-08
-7.92332e-07
6.53463e-08
7.74027e-08
6.71961e-08
6.53462e-08
2.99057e-07
6.71961e-08
1.42328e-08
2.99057e-07
-1.87401e-08
1.42328e-08
3.56482e-08
-1.87401e-08
6.19199e-09
3.56482e-08
-5.90521e-08
6.19199e-09
8.87741e-09
-5.90521e-08
4.77421e-09
8.87741e-09
2.14107e-09
-1.14778e-05
-8.05103e-06
1.22562e-05
8.66574e-06
-8.05103e-06
-1.87323e-06
8.66574e-06
-5.2732e-06
-1.87323e-06
1.83258e-06
-5.2732e-06
-3.8378e-06
1.83258e-06
2.44335e-06
-3.8378e-06
3.30262e-06
2.44335e-06
-7.92332e-07
3.30262e-06
-1.62508e-06
-7.92332e-07
6.53463e-08
-1.62508e-06
7.38809e-07
6.53463e-08
2.99057e-07
7.38809e-07
-2.42423e-07
2.99057e-07
-1.87401e-08
-2.42423e-07
2.09718e-07
-1.87401e-08
6.19199e-09
2.09718e-07
-6.77204e-08
6.19199e-09
8.87741e-09
-6.77204e-08
-1.71653e-08
8.87741e-09
2.14107e-09
-1.71653e-08
6.08083e-09
1.22563e-05
-5.2732e-06
-1.88824e-06
5.05579e-08
-5.2732e-06
3.30262e-06
5.05579e-08
-2.80668e-07
3.30262e-06
-1.62508e-06
-2.80668e-07
2.27695e-07
-1.62508e-06
7.38809e-07
2.27695e-07
-6.08819e-08
7.38809e-07
-2.42423e-07
-6.0882e-08
-4.02611e-08
-2.42423e-07
2.09718e-07
-4.02611e-08
-1.03471e-08
2.09718e-07
-6.77204e-08
-1.03471e-08
-7.48484e-09
-6.77204e-08
-1.71653e-08
-7.48484e-09
1.59417e-08
-1.71653e-08
6.08083e-09
1.59417e-08
4.66482e-10
5.0558e-08
-2.80668e-07
-3.20649e-07
2.49201e-07
-2.80668e-07
2.27695e-07
2.49201e-07
-1.30724e-07
2.27695e-07
-6.0882e-08
-1.30724e-07
6.09239e-08
-6.08819e-08
-4.02611e-08
6.09239e-08
-1.19117e-08
-4.02611e-08
-1.03471e-08
-1.19117e-08
1.62193e-08
-1.03471e-08
-7.48484e-09
1.62193e-08
-2.54596e-09
-7.48484e-09
1.59417e-08
-2.54596e-09
-4.96818e-09
1.59417e-08
4.66482e-10
-4.96818e-09
5.09951e-10
-3.20649e-07
2.49201e-07
1.6905e-07
-9.02364e-08
2.49201e-07
-1.30724e-07
-9.02364e-08
2.72526e-08
-1.30724e-07
6.09239e-08
2.72526e-08
-2.40675e-08
6.09239e-08
-1.19117e-08
-2.40675e-08
1.07761e-08
-1.19117e-08
1.62193e-08
1.07761e-08
-6.72953e-09
1.62193e-08
-2.54596e-09
-6.72954e-09
1.74479e-09
-2.54596e-09
-4.96818e-09
1.74479e-09
1.07952e-09
-4.96818e-09
5.09951e-10
1.07952e-09
-8.05107e-10
1.6905e-07
-9.02364e-08
-9.90728e-08
-1.63879e-08
-9.02363e-08
2.72526e-08
-1.63879e-08
5.42891e-08
2.72526e-08
-2.40675e-08
5.42891e-08
3.14795e-10
-2.40675e-08
1.07761e-08
3.14796e-10
-1.47145e-08
1.07761e-08
-6.72954e-09
-1.47145e-08
1.08736e-09
-6.72953e-09
1.74479e-09
1.08736e-09
-2.05784e-09
1.74479e-09
1.07952e-09
-2.05784e-09
2.32329e-09
1.07952e-09
-8.05107e-10
2.32329e-09
1.35744e-09
-1.63879e-08
5.42891e-08
2.01885e-08
9.42569e-09
5.42891e-08
3.14796e-10
9.42569e-09
8.48783e-09
3.14796e-10
-1.47145e-08
8.48783e-09
-6.71325e-09
-1.47145e-08
1.08736e-09
-6.71325e-09
2.26737e-09
1.08736e-09
-2.05784e-09
2.26737e-09
-1.2815e-09
-2.05784e-09
2.32329e-09
-1.2815e-09
7.65889e-10
2.32329e-09
1.35744e-09
7.65889e-10
9.35176e-10
-2.60416e-06
-2.11563e-05
-1.83428e-06
-1.14778e-05
1.01066e-05
2.38784e-05
5.00571e-06
1.81225e-05
2.38784e-05
1.4834e-05
1.81225e-05
7.80948e-06
-4.70265e-07
-1.33411e-05
-2.11563e-05
-3.20769e-05
-1.33411e-05
1.01066e-05
-3.20769e-05
5.00571e-06
9.15396e-05
0.0001361
-9.06447e-06
-6.07005e-05
-9.06447e-06
-6.07005e-05
-1.64894e-05
-2.60416e-06
0.0001361
-4.70263e-07
-6.07004e-05
-9.62348e-06
-6.07004e-05
-9.62348e-06
-2.60415e-06
-2.11563e-05
4.06035e-07
-3.29514e-06
1.4834e-05
7.49664e-06
-3.29514e-06
1.09536e-06
7.49664e-06
7.13702e-07
1.43289e-05
-4.54868e-06
7.9803e-06
3.35433e-06
7.9803e-06
3.35433e-06
1.01066e-05
2.38784e-05
-4.54868e-06
4.06035e-07
3.35433e-06
8.63308e-06
3.35433e-06
8.63308e-06
2.38784e-05
1.4834e-05
7.69213e-05
4.18901e-05
2.08217e-05
1.70295e-06
4.18901e-05
1.4329e-05
1.70295e-06
7.9803e-06
1.70295e-06
7.9803e-06
-1.33411e-05
1.01066e-05
2.08217e-05
1.70295e-06
-4.70263e-07
-1.33411e-05
0.000246339
0.000150112
8.37793e-05
0.00035933
0.000150112
7.69213e-05
0.00035933
2.08217e-05
0.00035933
2.08217e-05
0.0001361
-4.70267e-07
8.37793e-05
0.00035933
9.15396e-05
0.0001361
-0.000624835
0.000246339
0.000340628
8.37792e-05
-2.04161e-05
-3.22483e-05
-2.90257e-06
-4.12867e-06
-2.90257e-06
-4.12867e-06
4.06035e-07
-3.29514e-06
-3.22483e-05
7.92233e-06
-4.12867e-06
4.48127e-06
-4.12867e-06
4.48127e-06
-3.29514e-06
1.09536e-06
1.18146e-05
-2.17184e-05
1.90389e-06
-3.04439e-05
-2.17184e-05
-2.04161e-05
-3.04439e-05
-2.90257e-06
-3.04439e-05
-2.90257e-06
-4.54868e-06
4.06035e-07
1.90389e-06
-3.04439e-05
1.4329e-05
-4.54868e-06
6.06971e-05
5.85168e-05
3.2978e-05
0.00015102
5.85168e-05
1.18145e-05
0.00015102
1.90389e-06
0.00015102
1.9039e-06
4.18901e-05
1.43289e-05
3.2978e-05
0.00015102
7.69213e-05
4.18901e-05
1.51635e-05
6.0697e-05
0.000189753
3.2978e-05
0.000189753
3.2978e-05
0.000150112
7.69213e-05
-0.000142647
0.000189753
0.000246339
0.000150112
-2.19345e-05
6.97548e-06
7.92233e-06
3.75103e-06
6.97548e-06
8.87103e-06
3.75103e-06
2.01499e-06
1.82608e-05
-2.66645e-06
-5.46691e-05
-0.00010232
-5.46691e-05
-0.00010232
-2.04161e-05
-3.22483e-05
-2.66646e-06
-2.19345e-05
-0.00010232
5.22696e-06
-0.00010232
5.22696e-06
-3.22483e-05
7.92233e-06
7.61155e-05
-5.11611e-05
-0.000131425
0.000100885
-5.11611e-05
1.82608e-05
0.000100885
-5.46691e-05
0.000100885
-5.46691e-05
-2.17184e-05
-2.04161e-05
-0.000131425
0.000100885
1.18146e-05
-2.17184e-05
0.000122123
7.61155e-05
0.000288483
-0.000131425
0.000288483
-0.000131425
5.85168e-05
1.18145e-05
-0.000475533
0.000288483
6.0697e-05
5.85168e-05
-0.000126122
-6.72146e-06
1.82608e-05
-2.66646e-06
-0.000621135
0.000257643
0.000225374
-0.000126122
0.000225375
-0.000126122
-5.11611e-05
1.82608e-05
-0.000425658
0.000225375
7.61156e-05
-5.11611e-05
0.000943365
-0.000425658
0.000122123
7.61156e-05
-1.41294e-05
-1.86488e-05
1.88795e-05
4.93048e-05
-1.86488e-05
1.40711e-05
4.93048e-05
8.03143e-05
1.40711e-05
5.69909e-05
8.03143e-05
8.38032e-05
5.69909e-05
-5.53653e-05
8.38032e-05
0.00012736
-5.53653e-05
-2.48159e-05
0.00012736
0.000343985
-2.48159e-05
-0.000256534
0.000343985
0.000254689
-0.000256534
-0.000283608
0.000254689
-4.59838e-05
-0.000283608
7.31133e-05
-4.59838e-05
-1.91008e-05
7.31133e-05
3.99693e-05
-1.91008e-05
-8.58925e-05
3.99693e-05
-9.30397e-06
-8.58925e-05
2.21159e-06
-9.30397e-06
-1.56899e-06
2.21159e-06
3.21764e-05
-1.56899e-06
9.81841e-06
3.21764e-05
-8.13203e-06
9.81841e-06
-1.83428e-06
-8.13203e-06
-1.05486e-05
-1.83428e-06
-1.14778e-05
-1.05486e-05
1.22563e-05
1.88795e-05
4.93048e-05
-2.57525e-07
-1.73775e-05
4.93048e-05
8.03143e-05
-1.73775e-05
-1.19267e-05
8.03143e-05
8.38032e-05
-1.19267e-05
4.73119e-05
8.38032e-05
0.00012736
4.73119e-05
7.3661e-05
0.00012736
0.000343985
7.3661e-05
-5.18961e-06
0.000343985
0.000254689
-5.18961e-06
-8.61869e-05
0.000254689
-4.59838e-05
-8.61869e-05
-6.44586e-05
-4.59838e-05
-1.91008e-05
-6.44586e-05
-3.22304e-06
-1.91008e-05
-8.58925e-05
-3.22304e-06
1.6114e-05
-8.58925e-05
2.2116e-06
1.6114e-05
7.48424e-06
2.21159e-06
3.21764e-05
7.48424e-06
1.47395e-06
3.21764e-05
-8.13203e-06
1.47395e-06
-4.68978e-08
-8.13203e-06
-1.05486e-05
-4.68975e-08
-1.26629e-06
-1.05486e-05
1.22563e-05
-1.26629e-06
-1.88824e-06
-2.57525e-07
-1.19267e-05
2.11251e-06
9.76899e-06
-1.19267e-05
7.3661e-05
9.76899e-06
-5.4725e-06
7.3661e-05
-8.61869e-05
-5.4725e-06
5.30386e-05
-8.61869e-05
-3.22304e-06
5.30386e-05
-7.11341e-06
-3.22304e-06
7.48424e-06
-7.11341e-06
-9.81405e-07
7.48424e-06
-4.68975e-08
-9.81404e-07
-6.82421e-07
-4.68989e-08
-1.88824e-06
-6.82422e-07
1.39652e-06
-1.88824e-06
5.05584e-08
1.39652e-06
-3.20649e-07
2.11251e-06
9.76899e-06
-1.10941e-06
-5.22e-06
9.76899e-06
-5.4725e-06
-5.22e-06
5.37708e-06
-5.4725e-06
5.30386e-05
5.37708e-06
-2.58652e-05
5.30386e-05
-7.11341e-06
-2.58652e-05
1.53323e-06
-7.11341e-06
-9.81405e-07
1.53323e-06
8.2009e-07
-9.81404e-07
-6.82422e-07
8.2009e-07
-5.97673e-08
-6.82422e-07
1.39652e-06
-5.97672e-08
-5.62397e-07
1.39652e-06
-3.20649e-07
-5.62396e-07
1.69051e-07
-1.10941e-06
-5.22e-06
3.56951e-07
2.93682e-06
-5.22e-06
5.37708e-06
2.93682e-06
-6.24045e-06
5.37708e-06
-2.58652e-05
-6.24045e-06
9.56483e-06
-2.58652e-05
1.53323e-06
9.56483e-06
2.85532e-06
1.53323e-06
8.2009e-07
2.85532e-06
-6.68672e-07
8.2009e-07
-5.97672e-08
-6.68672e-07
6.59781e-07
-5.97673e-08
-5.62396e-07
6.59781e-07
5.05481e-09
-5.62397e-07
1.6905e-07
5.0548e-09
-9.90728e-08
3.56951e-07
2.93682e-06
6.86138e-07
2.55592e-06
2.93682e-06
-6.24044e-06
2.55592e-06
-3.09954e-06
-6.24045e-06
9.56483e-06
-3.09954e-06
1.01328e-05
9.56482e-06
2.85532e-06
1.01328e-05
5.07411e-07
2.85532e-06
-6.68672e-07
5.07411e-07
-5.50647e-07
-6.68672e-07
6.59781e-07
-5.50647e-07
2.45166e-07
6.59781e-07
5.05477e-09
2.45166e-07
1.83412e-07
5.05478e-09
-9.90728e-08
1.83412e-07
-8.34849e-08
-9.90728e-08
-1.63879e-08
-8.34849e-08
2.01885e-08
-1.64894e-05
-2.60416e-06
9.81841e-06
-1.83428e-06
-6.61948e-06
2.69161e-05
-9.30397e-06
-1.56899e-06
2.69161e-05
-1.64894e-05
-1.56899e-06
9.81841e-06
0.000131785
1.85956e-05
7.31132e-05
3.99693e-05
1.85956e-05
-6.61949e-06
3.99693e-05
-9.30397e-06
-0.000133604
-0.000215642
-0.000256534
-0.000283608
-0.000215642
0.000131785
-0.000283608
7.31133e-05
-4.67347e-05
7.70872e-05
-5.53653e-05
-2.48159e-05
7.70872e-05
-0.000133604
-2.48159e-05
-0.000256534
-2.5992e-05
-3.25375e-06
1.40711e-05
5.69909e-05
-3.25377e-06
-4.67347e-05
5.69909e-05
-5.53653e-05
-3.42617e-05
-3.11665e-05
-1.41294e-05
-1.86488e-05
-3.11665e-05
-2.5992e-05
-1.86488e-05
1.40711e-05
-2.31055e-05
-2.88599e-05
-1.31218e-05
-1.48627e-05
-2.88599e-05
-3.42617e-05
-1.48627e-05
-1.41294e-05
0.000197733
-0.000117138
-4.57266e-05
8.06978e-05
-0.000117138
9.15396e-05
8.06978e-05
-9.06447e-06
8.06978e-05
-9.06447e-06
2.69161e-05
-1.64894e-05
-4.57266e-05
8.06978e-05
-6.61948e-06
2.69161e-05
-0.00156638
-0.000251663
0.000589373
0.000111891
-0.000251663
0.000197733
0.000111891
-4.57266e-05
0.000111891
-4.57265e-05
1.85956e-05
-6.61949e-06
0.000589373
0.000111891
0.000131785
1.85956e-05
0.00280499
0.00362779
-0.00095687
-0.00125963
0.00362779
-0.00156638
-0.00125963
0.000589373
-0.00125963
0.000589373
-0.000215642
0.000131785
-0.00095687
-0.00125963
-0.000133604
-0.000215642
0.000347966
0.000169102
-0.000100548
-2.54713e-05
0.000169102
0.00280499
-2.54713e-05
-0.00095687
-2.54713e-05
-0.00095687
7.70872e-05
-0.000133604
-0.000100548
-2.54713e-05
-4.67347e-05
7.70872e-05
0.000258724
0.00027408
-0.000123486
-0.000115009
0.00027408
0.000347965
-0.000115009
-0.000100548
-0.000115009
-0.000100549
-3.25376e-06
-4.67347e-05
-0.000123486
-0.000115009
-2.5992e-05
-3.25376e-06
0.000235861
0.000212672
-8.8676e-05
-8.82171e-05
0.000212672
0.000258724
-8.82171e-05
-0.000123486
-8.82171e-05
-0.000123486
-3.11665e-05
-2.5992e-05
-8.8676e-05
-8.82172e-05
-3.42617e-05
-3.11665e-05
0.000143686
0.000203029
-5.48914e-05
-7.70565e-05
0.000203029
0.000235861
-7.70565e-05
-8.8676e-05
-7.70565e-05
-8.86759e-05
-2.88599e-05
-3.42617e-05
0.000340628
8.37792e-05
-0.000117138
9.15396e-05
-0.000355654
0.000340628
0.000197733
-0.000117138
-0.00632321
-0.000964224
0.00475633
0.000820565
-0.000964224
0.000813871
0.000820565
-0.000355653
0.000820565
-0.000355654
-0.000251663
0.000197733
0.00475633
0.000820565
-0.00156638
-0.000251663
0.0141603
0.0167996
-0.0080515
-0.00865864
0.0167996
-0.00632321
-0.00865864
0.00475633
-0.00865864
0.00475633
0.00362779
-0.00156638
-0.0080515
-0.00865864
0.00280499
0.00362779
0.00619733
0.00510863
-0.0009897
-0.00159261
0.00510863
0.0141603
-0.00159261
-0.0080515
-0.00159261
-0.0080515
0.000169102
0.00280499
-0.0009897
-0.00159261
0.000347965
0.000169102
0.00813834
0.00676488
-0.000211768
-0.000352651
0.00676488
0.00619733
-0.000352651
-0.0009897
-0.000352651
-0.0009897
0.00027408
0.000347965
-0.000211768
-0.000352651
0.000258724
0.00027408
0.00843224
0.00799351
-0.000148159
-0.000105103
0.00799351
0.00813834
-0.000105103
-0.000211768
-0.000105103
-0.000211768
0.000212672
0.000258724
-0.000148159
-0.000105103
0.000235861
0.000212672
0.00838259
0.00797121
5.00002e-05
-7.6632e-05
0.00797121
0.00843224
-7.66321e-05
-0.000148159
-7.66321e-05
-0.000148159
0.000203029
0.000235861
5.00003e-05
-7.66321e-05
0.000143686
0.000203029
0.158406
0.152932
0.00676488
0.00619733
0.162918
0.158406
0.00813834
0.00676488
0.752518
0.751558
0.164252
0.163393
0.163393
0.162918
0.00799351
0.00813834
0.164252
0.163393
0.00843224
0.00799351
0.163604
0.164252
0.00797121
0.00843224
0.000120973
0.000423214
0.000670996
0.00100348
0.000423214
0.000304241
0.00100348
0.000556379
0.000304241
4.58979e-05
0.000556379
7.75708e-05
4.58979e-05
-4.14063e-06
7.75708e-05
-8.56224e-06
0.000556379
7.75708e-05
0.000611311
5.56822e-05
7.75708e-05
-8.56224e-06
5.56822e-05
1.29614e-05
-8.56224e-06
8.28686e-06
1.29614e-05
-1.49142e-06
8.28686e-06
-7.51638e-06
-1.49142e-06
-4.50057e-06
-7.51638e-06
-5.3912e-06
-4.50056e-06
-2.25149e-06
0.000611311
5.56822e-05
0.000457013
6.20732e-06
5.56822e-05
1.29614e-05
6.20732e-06
2.38557e-05
1.29614e-05
-1.49142e-06
2.38557e-05
-1.44568e-05
-1.49142e-06
-4.50056e-06
-1.44568e-05
9.89752e-06
-4.50057e-06
-2.25149e-06
9.89752e-06
6.21529e-06
0.000457013
6.20732e-06
0.000143071
1.94107e-05
6.20732e-06
2.38557e-05
1.94107e-05
1.98799e-06
2.38557e-05
-1.44568e-05
1.98799e-06
-2.83288e-06
-1.44568e-05
9.89752e-06
-2.83288e-06
1.45446e-06
9.89752e-06
6.21529e-06
1.45446e-06
-4.64404e-07
0.000143071
1.94107e-05
-2.60648e-06
8.6075e-07
1.94107e-05
1.98799e-06
8.60749e-07
3.9963e-06
1.98799e-06
-2.83288e-06
3.9963e-06
-1.62569e-06
-2.83288e-06
1.45446e-06
-1.62569e-06
3.15783e-07
1.45446e-06
-4.64404e-07
3.15783e-07
7.34479e-07
-2.60648e-06
8.6075e-07
8.87103e-06
4.805e-06
8.6075e-07
3.9963e-06
4.805e-06
-1.12346e-06
3.9963e-06
-1.62569e-06
-1.12346e-06
7.81422e-07
-1.62569e-06
3.15783e-07
7.81422e-07
-7.22376e-07
3.15782e-07
7.34479e-07
-7.22376e-07
-5.71546e-07
8.87103e-06
4.805e-06
2.01499e-06
-1.26882e-07
4.805e-06
-1.12346e-06
-1.26882e-07
4.7999e-07
-1.12346e-06
7.81422e-07
4.7999e-07
-2.20288e-07
7.81422e-07
-7.22376e-07
-2.20288e-07
1.82201e-07
-7.22375e-07
-5.71546e-07
1.82201e-07
1.82788e-07
-1.68105e-05
-5.29895e-05
-5.94573e-05
-6.06525e-05
-5.94573e-05
-6.06525e-05
-2.19345e-05
6.97548e-06
-5.29895e-05
-2.60648e-06
-6.06525e-05
-3.65882e-06
-6.06525e-05
-3.65882e-06
6.97548e-06
8.87103e-06
0.000257643
-0.000259245
-0.000126122
-6.72145e-06
-0.000259245
-1.68105e-05
-6.72147e-06
-5.94573e-05
-6.72149e-06
-5.94573e-05
-2.66647e-06
-2.19345e-05
0.00135879
-0.000621135
-0.000425658
0.000225375
0.000315967
0.00013535
5.38231e-05
2.74735e-06
5.38231e-05
2.74735e-06
-1.68105e-05
-5.29895e-05
0.00013535
0.000143071
2.74735e-06
4.16373e-05
2.74735e-06
4.16373e-05
-5.29895e-05
-2.60648e-06
0.000540866
0.000120865
0.000343857
-0.000256247
0.000120865
0.000315967
-0.000256247
5.38231e-05
-0.000256247
5.38231e-05
-0.000259245
-1.68105e-05
0.000343857
-0.000256247
0.000257643
-0.000259245
0.0026217
-0.000924818
0.00194302
-0.000717896
-0.000924817
0.000540866
-0.000717896
0.000343857
-0.000717896
0.000343857
-0.000621135
0.000257643
0.00194302
-0.000717896
0.00135879
-0.000621135
0.00155575
0.000946164
0.000847223
0.00042928
0.000847223
0.00042928
0.000315967
0.00013535
0.000946164
0.000457013
0.00042928
0.00029918
0.00042928
0.00029918
0.00013535
0.000143071
0.00254818
-0.00171473
0.00153671
4.82601e-05
-0.00171473
0.00155575
4.82601e-05
0.000847223
4.82601e-05
0.000847223
0.000120865
0.000315967
0.00153671
4.82601e-05
0.000540866
0.000120865
0.0124563
-0.00696854
0.00649006
-0.00366659
-0.00696854
0.00254818
-0.00366659
0.00153671
-0.00366659
0.00153671
-0.000924817
0.000540866
0.00649006
-0.00366659
0.0026217
-0.000924817
0.0368287
0.0124563
0.0257569
0.00649006
0.0257569
0.00649006
0.0119291
0.0026217
0.000903187
0.000935751
0.00152001
0.00112885
0.00152001
0.00112885
0.00155575
0.000946164
0.000935751
0.000611311
0.00112885
0.00056297
0.00112885
0.00056297
0.000946164
0.000457013
-0.00104815
4.18266e-05
0.00124398
-0.00211049
4.18264e-05
0.000903187
-0.00211049
0.00152001
-0.00211049
0.00152001
-0.00171473
0.00155575
0.00124397
-0.00211049
0.00254818
-0.00171473
-0.00359941
0.00201031
0.00877879
-0.00404765
0.00201031
-0.00104815
-0.00404765
0.00124398
-0.00404765
0.00124397
-0.00696854
0.00254818
0.00877879
-0.00404765
0.0124563
-0.00696854
0.13873
0.0127428
0.384071
0.0238394
0.0127428
-0.00359941
0.0238394
0.00877879
0.0238394
0.00877879
0.0368287
0.0124563
0.384071
0.0238393
0.468913
0.0368287
0.000670996
0.00100348
0.000903187
0.000935751
0.00100348
0.000556379
0.000935751
0.000611311
-0.00131018
0.0012697
-0.00138824
0.00138384
-0.00138824
0.00138384
-0.00104815
4.18265e-05
0.0012697
0.000670996
0.00138384
0.000683017
0.00138384
0.000683017
4.18265e-05
0.000903187
-0.00575437
0.00294108
-0.00591058
0.00302665
0.00294108
-0.00131018
0.00302665
-0.00138824
0.00302665
-0.00138824
0.00201031
-0.00104815
-0.00591058
0.00302665
-0.00359941
0.00201031
0.0834023
0.0139232
0.0775123
0.0145738
0.0139232
-0.00575436
0.0145738
-0.00591058
0.0145738
-0.00591058
0.0127428
-0.00359941
0.0775123
0.0145738
0.13873
0.0127428
0.687288
0.0834023
0.663089
0.0775123
-0.00129619
0.000896616
-0.00134682
0.00109607
-0.00134682
0.00109607
-0.00131018
0.0012697
0.000896616
0.000120973
0.00109607
0.000456066
0.00109607
0.000456066
0.0012697
0.000670996
-0.00532023
0.0027374
-0.00577839
0.00294097
0.0027374
-0.00129619
0.00294097
-0.00134682
0.00294097
-0.00134682
0.00294108
-0.00131018
-0.00577839
0.00294097
-0.00575436
0.00294108
0.0404772
0.0120244
0.0741172
0.0139467
0.0120244
-0.00532023
0.0139467
-0.00577839
0.0139467
-0.00577839
0.0139232
-0.00575436
0.0741172
0.0139467
0.0834023
0.0139232
0.51507
0.0404772
0.651489
0.0741172
0.651489
0.0741172
0.687288
0.0834023
1.88115e-05
0.000141512
0.000120973
0.000423214
-0.000758661
0.000646962
-0.000975946
0.00053651
-0.000975946
0.00053651
-0.00129619
0.000896616
0.000646962
1.88115e-05
0.00053651
-0.000115127
0.00053651
-0.000115127
0.000896616
0.000120973
-0.00336883
0.00171802
-0.00377153
0.00194598
0.00171802
-0.000758661
0.00194598
-0.000975946
0.00194598
-0.000975946
0.0027374
-0.00129619
-0.00377153
0.00194598
-0.00532023
0.0027374
0.0190178
0.00729046
0.0228392
0.00864939
0.00729046
-0.00336883
0.00864939
-0.00377153
0.00864939
-0.00377153
0.0120244
-0.00532023
0.0228392
0.00864939
0.0404772
0.0120244
0.393596
0.0228392
0.51507
0.0404772
-0.000920671
0.00156649
-0.000758661
0.000646962
0.00236918
-0.000924288
0.0024551
-0.000920671
0.0024551
-0.000920671
0.00171802
-0.000758661
-0.00463599
0.0024551
-0.00336883
0.00171802
0.0142888
-0.00460839
0.011147
-0.00463599
0.011147
-0.00463599
0.00729046
-0.00336883
0.0376742
0.011147
0.0190178
0.00729046
0.0241257
0.00389945
0.0142888
-0.00460839
0.999719
1.00004
1.0003
1.00057
1.00004
0.999268
1.00057
1.00032
0.999268