# vtk DataFile Version 2.0
Hex test
ASCII
DATASET UNSTRUCTURED_GRID
POINTS 9532 float
24 26 0
24 28 0
26 26 0
26 28 0
24 28 0
24 30 0
26 28 0
26 30 0
24 30 0
24 32 0
26 30 0
26 32 0
26 20 0
26 22 0
28 20 0
28 22 0
26 22 0
26 24 0
28 22 0
28 24 0
26 24 0
26 26 0
28 24 0
28 26 0
26 26 0
26 28 0
28 26 0
28 28 0
26 28 0
26 30 0
28 28 0
28 30 0
26 30 0
26 32 0
28 30 0
28 32 0
26 32 0
26 34 0
28 32 0
28 34 0
26 34 0
26 36 0
28 34 0
28 36 0
28 20 0
28 22 0
30 20 0
30 22 0
28 22 0
28 24 0
30 22 0
30 24 0
28 24 0
28 26 0
30 24 0
30 26 0
28 26 0
28 28 0
30 26 0
30 28 0
28 28 0
28 30 0
30 28 0
30 30 0
28 30 0
28 32 0
30 30 0
30 32 0
28 32 0
28 34 0
30 32 0
30 34 0
28 34 0
28 35 0
30 34 0
30 35 0
28 35 0
28 36 0
30 35 0
30 36 0
30 20 0
30 22 0
32 20 0
32 22 0
30 22 0
30 24 0
32 22 0
32 24 0
30 24 0
30 26 0
32 24 0
32 26 0
30 26 0
30 28 0
32 26 0
32 28 0
30 28 0
30 30 0
32 28 0
32 30 0
30 30 0
30 32 0
32 30 0
32 32 0
30 32 0
30 33 0
32 32 0
32 33 0
30 33 0
30 34 0
32 33 0
32 34 0
30 34 0
30 35 0
32 34 0
32 35 0
30 35 0
30 36 0
32 35 0
32 36 0
32 20 0
32 21 0
34 20 0
34 21 0
32 21 0
32 22 0
34 21 0
34 22 0
32 22 0
32 23 0
34 22 0
34 23 0
32 23 0
32 24 0
34 23 0
34 24 0
32 24 0
32 25 0
34 24 0
34 25 0
32 25 0
32 26 0
34 25 0
34 26 0
32 26 0
32 27 0
34 26 0
34 27 0
32 27 0
32 28 0
34 27 0
34 28 0
32 28 0
32 29 0
34 28 0
34 29 0
32 29 0
32 30 0
34 29 0
34 30 0
32 30 0
32 31 0
34 30 0
34 31 0
32 31 0
32 32 0
34 31 0
34 32 0
32 32 0
32 33 0
34 32 0
34 33 0
32 33 0
32 34 0
34 33 0
34 34 0
34 20 0
34 21 0
36 20 0
36 21 0
34 21 0
34 22 0
36 21 0
36 22 0
34 22 0
34 23 0
36 22 0
36 23 0
34 23 0
34 24 0
36 23 0
36 24 0
34 24 0
34 25 0
36 24 0
36 25 0
34 25 0
34 26 0
36 25 0
36 26 0
34 26 0
34 27 0
36 26 0
36 27 0
34 27 0
34 28 0
36 27 0
36 28 0
34 28 0
34 29 0
36 28 0
36 29 0
34 29 0
34 30 0
36 29 0
36 30 0
34 30 0
34 31 0
36 30 0
36 31 0
34 31 0
34 32 0
36 31 0
36 32 0
40 34 0
40 35 0
41 34 0
41 35 0
40 32 0
40 33 0
41 32 0
41 33 0
40 33 0
40 34 0
41 33 0
41 34 0
40 31 0
40 32 0
41 31 0
41 32 0
38 36 0
38 37 0
39 36 0
39 37 0
38 37 0
38 38 0
39 37 0
39 38 0
38 34 0
38 35 0
39 34 0
39 35 0
38 35 0
38 36 0
39 35 0
39 36 0
39 35 0
39 36 0
40 35 0
40 36 0
39 34 0
39 35 0
40 34 0
40 35 0
38 32 0
38 33 0
39 32 0
39 33 0
38 33 0
38 34 0
39 33 0
39 34 0
39 33 0
39 34 0
40 33 0
40 34 0
39 32 0
39 33 0
40 32 0
40 33 0
38 30 0
38 31 0
39 30 0
39 31 0
38 31 0
38 32 0
39 31 0
39 32 0
39 31 0
39 32 0
40 31 0
40 32 0
39 30 0
39 31 0
40 30 0
40 31 0
38 28 0
38 29 0
39 28 0
39 29 0
38 29 0
38 30 0
39 29 0
39 30 0
39 29 0
39 30 0
40 29 0
40 30 0
38 27 0
38 28 0
39 27 0
39 28 0
36 38 0
36 39 0
37 38 0
37 39 0
37 38 0
37 39 0
38 38 0
38 39 0
36 36 0
36 37 0
37 36 0
37 37 0
36 37 0
36 38 0
37 37 0
37 38 0
37 37 0
37 38 0
38 37 0
38 38 0
37 36 0
37 37 0
38 36 0
38 37 0
36 34 0
36 35 0
37 34 0
37 35 0
36 35 0
36 36 0
37 35 0
37 36 0
37 35 0
37 36 0
38 35 0
38 36 0
37 34 0
37 35 0
38 34 0
38 35 0
36 32 0
36 33 0
37 32 0
37 33 0
37 32 0
37 33 0
38 32 0
38 33 0
36 33 0
36 34 0
37 33 0
37 34 0
37 33 0
37 34 0
38 33 0
38 34 0
36 30 0
36 31 0
38 30 0
38 31 0
36 31 0
36 32 0
38 31 0
38 32 0
36 28 0
36 29 0
38 28 0
38 29 0
36 29 0
36 30 0
38 29 0
38 30 0
36 26 0
36 27 0
38 26 0
38 27 0
36 27 0
36 28 0
38 27 0
38 28 0
36 24 0
36 25 0
38 24 0
38 25 0
36 25 0
36 26 0
38 25 0
38 26 0
36 22 0
36 23 0
38 22 0
38 23 0
36 23 0
36 24 0
38 23 0
38 24 0
36 20 0
36 21 0
38 20 0
38 21 0
36 21 0
36 22 0
38 21 0
38 22 0
34 38 0
34 39 0
35 38 0
35 39 0
34 39 0
34 40 0
35 39 0
35 40 0
35 38 0
35 39 0
36 38 0
36 39 0
34 36 0
34 37 0
35 36 0
35 37 0
34 37 0
34 38 0
35 37 0
35 38 0
35 37 0
35 38 0
36 37 0
36 38 0
35 36 0
35 37 0
36 36 0
36 37 0
34 34 0
34 35 0
35 34 0
35 35 0
35 34 0
35 35 0
36 34 0
36 35 0
34 35 0
34 36 0
35 35 0
35 36 0
35 35 0
35 36 0
36 35 0
36 36 0
34 32 0
34 33 0
36 32 0
36 33 0
34 33 0
34 34 0
36 33 0
36 34 0
32 38 0
32 39 0
33 38 0
33 39 0
32 39 0
32 40 0
33 39 0
33 40 0
33 39 0
33 40 0
34 39 0
34 40 0
33 38 0
33 39 0
34 38 0
34 39 0
32 36 0
32 37 0
33 36 0
33 37 0
33 36 0
33 37 0
34 36 0
34 37 0
32 37 0
32 38 0
33 37 0
33 38 0
33 37 0
33 38 0
34 37 0
34 38 0
32 34 0
32 35 0
34 34 0
34 35 0
32 35 0
32 36 0
34 35 0
34 36 0
30 40 0
30 41 0
31 40 0
31 41 0
31 40 0
31 41 0
32 40 0
32 41 0
30 38 0
30 39 0
31 38 0
31 39 0
30 39 0
30 40 0
31 39 0
31 40 0
31 39 0
31 40 0
32 39 0
32 40 0
31 38 0
31 39 0
32 38 0
32 39 0
30 36 0
30 37 0
31 36 0
31 37 0
31 36 0
31 37 0
32 36 0
32 37 0
30 37 0
30 38 0
31 37 0
31 38 0
31 37 0
31 38 0
32 37 0
32 38 0
29 40 0
29 41 0
30 40 0
30 41 0
28 38 0
28 39 0
29 38 0
29 39 0
28 39 0
28 40 0
29 39 0
29 40 0
29 39 0
29 40 0
30 39 0
30 40 0
29 38 0
29 39 0
30 38 0
30 39 0
28 36 0
28 37 0
29 36 0
29 37 0
29 36 0
29 37 0
30 36 0
30 37 0
28 37 0
28 38 0
29 37 0
29 38 0
29 37 0
29 38 0
30 37 0
30 38 0
26 38 0
26 39 0
27 38 0
27 39 0
27 39 0
27 40 0
28 39 0
28 40 0
27 38 0
27 39 0
28 38 0
28 39 0
26 36 0
26 37 0
27 36 0
27 37 0
27 36 0
27 37 0
28 36 0
28 37 0
26 37 0
26 38 0
27 37 0
27 38 0
27 37 0
27 38 0
28 37 0
28 38 0
46 22 0
46 23 0
48 22 0
48 23 0
46 23 0
46 24 0
48 23 0
48 24 0
46 24 0
46 25 0
48 24 0
48 25 0
46 25 0
46 26 0
48 25 0
48 26 0
46 26 0
46 27 0
48 26 0
48 27 0
46 27 0
46 28 0
48 27 0
48 28 0
46 28 0
46 29 0
48 28 0
48 29 0
46 29 0
46 30 0
48 29 0
48 30 0
46 30 0
46 31 0
48 30 0
48 31 0
46 31 0
46 32 0
48 31 0
48 32 0
46 32 0
46 33 0
48 32 0
48 33 0
46 33 0
46 34 0
48 33 0
48 34 0
48 20 0
48 21 0
50 20 0
50 21 0
48 21 0
48 22 0
50 21 0
50 22 0
48 22 0
48 23 0
50 22 0
50 23 0
48 23 0
48 24 0
50 23 0
50 24 0
48 24 0
48 25 0
50 24 0
50 25 0
48 25 0
48 26 0
50 25 0
50 26 0
48 26 0
48 27 0
50 26 0
50 27 0
48 27 0
48 28 0
50 27 0
50 28 0
48 28 0
48 29 0
50 28 0
50 29 0
48 29 0
48 30 0
50 29 0
50 30 0
48 30 0
48 31 0
50 30 0
50 31 0
48 31 0
48 32 0
50 31 0
50 32 0
48 32 0
48 33 0
50 32 0
50 33 0
48 33 0
48 34 0
50 33 0
50 34 0
50 20 0
50 21 0
52 20 0
52 21 0
50 21 0
50 22 0
52 21 0
52 22 0
50 22 0
50 24 0
52 22 0
52 24 0
50 24 0
50 26 0
52 24 0
52 26 0
50 26 0
50 28 0
52 26 0
52 28 0
50 28 0
50 30 0
52 28 0
52 30 0
50 30 0
50 32 0
52 30 0
52 32 0
50 32 0
50 34 0
52 32 0
52 34 0
52 20 0
52 22 0
54 20 0
54 22 0
52 22 0
52 24 0
54 22 0
54 24 0
52 24 0
52 26 0
54 24 0
54 26 0
52 26 0
52 28 0
54 26 0
54 28 0
52 28 0
52 30 0
54 28 0
54 30 0
52 30 0
52 32 0
54 30 0
54 32 0
52 32 0
52 34 0
54 32 0
54 34 0
54 20 0
54 22 0
56.1667 20 0
56.1667 22 0
54 22 0
54 24 0
56.1667 22 0
56.1667 24 0
54 24 0
54 26 0
56.1667 24 0
56.1667 26 0
54 26 0
54 28 0
56.1667 26 0
56.1667 28 0
54 28 0
54 30 0
56.1667 28 0
56.1667 30 0
54 30 0
54 32 0
56.1667 30 0
56.1667 32 0
54 32 0
54 34 0
56.1667 32 0
56.1667 34 0
56.1667 20 0
56.1667 22 0
60 20 0
60 22 0
56.1667 22 0
56.1667 24 0
60 22 0
60 24 0
56.1667 24 0
56.1667 26 0
60 24 0
60 26 0
56.1667 26 0
56.1667 28 0
60 26 0
60 28 0
56.1667 28 0
56.1667 30 0
60 28 0
60 30 0
56.1667 30 0
56.1667 32 0
60 30 0
60 32 0
56.1667 32 0
56.1667 34 0
60 32 0
60 34 0
46 20 0
46 21 0
48 20 0
48 21 0
46 21 0
46 22 0
48 21 0
48 22 0
46 19 0
46 20 0
48 19 0
48 20 0
44 32 0
44 33 0
46 32 0
46 33 0
44 33 0
44 34 0
46 33 0
46 34 0
44 30 0
44 31 0
46 30 0
46 31 0
44 31 0
44 32 0
46 31 0
46 32 0
44 28 0
44 29 0
46 28 0
46 29 0
44 29 0
44 30 0
46 29 0
46 30 0
44 26 0
44 27 0
46 26 0
46 27 0
44 27 0
44 28 0
46 27 0
46 28 0
44 24 0
44 25 0
46 24 0
46 25 0
44 25 0
44 26 0
46 25 0
46 26 0
44 22 0
44 23 0
46 22 0
46 23 0
44 23 0
44 24 0
46 23 0
46 24 0
44 20 0
44 21 0
45 20 0
45 21 0
45 20 0
45 21 0
46 20 0
46 21 0
44 21 0
44 22 0
45 21 0
45 22 0
45 21 0
45 22 0
46 21 0
46 22 0
44 19 0
44 20 0
45 19 0
45 20 0
45 19 0
45 20 0
46 19 0
46 20 0
42 32 0
42 33 0
43 32 0
43 33 0
42 33 0
42 34 0
43 33 0
43 34 0
43 33 0
43 34 0
44 33 0
44 34 0
43 32 0
43 33 0
44 32 0
44 33 0
42 30 0
42 31 0
43 30 0
43 31 0
42 31 0
42 32 0
43 31 0
43 32 0
43 31 0
43 32 0
44 31 0
44 32 0
43 30 0
43 31 0
44 30 0
44 31 0
42 28 0
42 29 0
43 28 0
43 29 0
42 29 0
42 30 0
43 29 0
43 30 0
43 29 0
43 30 0
44 29 0
44 30 0
43 28 0
43 29 0
44 28 0
44 29 0
42 26 0
42 27 0
43 26 0
43 27 0
42 27 0
42 28 0
43 27 0
43 28 0
43 27 0
43 28 0
44 27 0
44 28 0
43 26 0
43 27 0
44 26 0
44 27 0
42 24 0
42 25 0
43 24 0
43 25 0
42 25 0
42 26 0
43 25 0
43 26 0
43 25 0
43 26 0
44 25 0
44 26 0
43 24 0
43 25 0
44 24 0
44 25 0
42 22 0
42 23 0
43 22 0
43 23 0
42 23 0
42 24 0
43 23 0
43 24 0
43 23 0
43 24 0
44 23 0
44 24 0
43 22 0
43 23 0
44 22 0
44 23 0
42 20 0
42 21 0
43 20 0
43 21 0
42 21 0
42 22 0
43 21 0
43 22 0
43 21 0
43 22 0
44 21 0
44 22 0
43 20 0
43 21 0
44 20 0
44 21 0
42 19 0
42 20 0
43 19 0
43 20 0
43 19 0
43 20 0
44 19 0
44 20 0
41 33 0
41 34 0
42 33 0
42 34 0
41 32 0
41 33 0
42 32 0
42 33 0
40 30 0
40 31 0
41 30 0
41 31 0
41 31 0
41 32 0
42 31 0
42 32 0
41 30 0
41 31 0
42 30 0
42 31 0
40 28 0
40 29 0
41 28 0
41 29 0
40 29 0
40 30 0
41 29 0
41 30 0
41 29 0
41 30 0
42 29 0
42 30 0
41 28 0
41 29 0
42 28 0
42 29 0
40 26 0
40 27 0
41 26 0
41 27 0
40 27 0
40 28 0
41 27 0
41 28 0
41 27 0
41 28 0
42 27 0
42 28 0
41 26 0
41 27 0
42 26 0
42 27 0
40 24 0
40 25 0
41 24 0
41 25 0
40 25 0
40 26 0
41 25 0
41 26 0
41 25 0
41 26 0
42 25 0
42 26 0
41 24 0
41 25 0
42 24 0
42 25 0
40 22 0
40 23 0
41 22 0
41 23 0
40 23 0
40 24 0
41 23 0
41 24 0
41 23 0
41 24 0
42 23 0
42 24 0
41 22 0
41 23 0
42 22 0
42 23 0
40 20 0
40 21 0
41 20 0
41 21 0
40 21 0
40 22 0
41 21 0
41 22 0
41 21 0
41 22 0
42 21 0
42 22 0
41 20 0
41 21 0
42 20 0
42 21 0
40 18 0
40 19 0
41 18 0
41 19 0
40 19 0
40 20 0
41 19 0
41 20 0
41 19 0
41 20 0
42 19 0
42 20 0
41 18 0
41 19 0
42 18 0
42 19 0
39 28 0
39 29 0
40 28 0
40 29 0
38 26 0
38 27 0
39 26 0
39 27 0
39 27 0
39 28 0
40 27 0
40 28 0
39 26 0
39 27 0
40 26 0
40 27 0
38 24 0
38 25 0
39 24 0
39 25 0
38 25 0
38 26 0
39 25 0
39 26 0
39 25 0
39 26 0
40 25 0
40 26 0
39 24 0
39 25 0
40 24 0
40 25 0
38 22 0
38 23 0
39 22 0
39 23 0
38 23 0
38 24 0
39 23 0
39 24 0
39 23 0
39 24 0
40 23 0
40 24 0
39 22 0
39 23 0
40 22 0
40 23 0
38 20 0
38 21 0
39 20 0
39 21 0
38 21 0
38 22 0
39 21 0
39 22 0
39 21 0
39 22 0
40 21 0
40 22 0
39 20 0
39 21 0
40 20 0
40 21 0
38 19 0
38 20 0
39 19 0
39 20 0
39 19 0
[...]
POINT_DATA 9532
SCALARS phi float 1
LOOKUP_TABLE default
0.999708
1.00006
1.00028
1.00056
1.00006
0.999306
1.00056
1.0002
0.999306
1.00085
1.0002
1.00042
1.00065
1.00024
0.999216
0.999228
1.00024
1.00053
0.999228
0.999144
1.00053
1.00028
0.999144
0.999204
1.00028
1.00056
0.999204
0.999236
1.00056
1.0002
0.999235
0.999066
1.0002
1.00042
0.999066
0.999935
1.00042
0.998469
0.999935
1.0008
0.998469
0.999348
1.0008
1.00009
0.999216
0.999228
1.00142
1.00145
0.999228
0.999144
1.00145
1.00161
0.999144
0.999204
1.00161
1.00151
0.999204
0.999236
1.00151
1.00135
0.999236
0.999066
1.00135
1.00163
0.999066
0.999935
1.00163
0.999639
0.999935
1.0008
0.999639
0.99727
1.0008
1.00122
0.99727
0.994948
1.00122
1.00009
0.994948
0.998402
1.00142
1.00145
0.99785
0.997537
1.00145
1.00161
0.997538
0.997291
1.00161
1.00151
0.997291
0.997283
1.00151
1.00135
0.997283
0.998287
1.00135
1.00163
0.998287
0.99515
1.00163
0.999639
0.99515
1.00106
0.999639
0.998724
1.00106
0.999648
0.998724
0.99727
0.999648
1.006
0.99727
0.994948
1.006
1.00665
0.994948
0.998402
1.00665
0.994239
0.99785
0.997683
1.00524
1.00576
0.997683
0.997537
1.00576
1.00564
0.997537
0.997454
1.00564
1.00494
0.997454
0.997291
1.00494
1.00499
0.997291
0.997022
1.00499
1.00521
0.997022
0.997283
1.00521
1.00563
0.997283
0.998333
1.00563
1.00562
0.998333
0.998287
1.00562
1.0058
0.998287
0.995961
1.0058
1.00695
0.995961
0.99515
1.00695
1.00777
0.99515
0.998743
1.00777
1.00609
0.998743
1.00106
1.00609
1.00073
1.00106
0.999648
1.00073
0.995633
0.999648
1.006
0.995633
0.994606
1.00524
1.00576
0.992776
0.992925
1.00576
1.00564
0.992925
0.993021
1.00564
1.00494
0.993021
0.992922
1.00494
1.00499
0.992922
0.993156
1.00499
1.00521
0.993156
0.992976
1.00521
1.00563
0.992976
0.992843
1.00563
1.00562
0.992843
0.993
1.00562
1.0058
0.993
0.992729
1.0058
1.00695
0.992729
0.991935
1.00695
1.00777
0.991935
0.991968
1.00777
1.00609
0.991968
0.993134
1.00609
1.00073
0.993134
0.999667
-0.00549396
-0.000542492
0.00324555
0.000449157
0.0125814
0.0148059
-0.00517685
-0.0066552
0.0148059
-0.00549396
-0.0066552
0.00324555
0.00757176
0.0125814
-0.00137438
-0.00517685
0.00548733
-0.00174811
-0.00108742
0.00145348
-0.00174811
0.000551362
0.00145348
-0.000319865
0.103745
0.0280106
0.0192644
0.0028881
0.0280106
0.00548734
0.0028881
-0.00108742
0.0028881
-0.00108742
-0.000542492
0.000746286
0.0192644
0.0028881
-0.00549396
-0.000542491
0.665115
0.425086
0.0838172
0.0107974
0.425086
0.103745
0.0107974
0.0192644
0.0107974
0.0192644
0.0148059
-0.00549396
0.0838172
0.0107974
0.0125814
0.0148059
0.752427
0.74264
0.153723
0.147853
0.74264
0.665114
0.147853
0.0838172
0.147853
0.0838172
0.00757176
0.0125814
0.153723
0.147853
0.00734041
0.00757176
0.749187
0.751124
0.156289
0.154631
0.751124
0.752427
0.154631
0.153723
0.154631
0.153723
0.00763027
0.00734041
0.747437
0.749187
0.156247
0.156289
0.0190293
0.000468773
-0.000363948
0.00130094
-0.000363949
0.00130094
0.000551362
-6.57039e-05
0.328601
0.0718907
0.0359543
0.0148089
0.0718907
0.0190293
0.0148089
-0.000363948
0.0148089
-0.000363949
-0.00174811
0.000551362
0.0359543
0.0148089
0.00548734
-0.00174811
0.955493
0.743866
0.697048
0.260785
0.743866
0.328601
0.260785
0.0359543
0.260785
0.0359543
0.0280106
0.00548734
0.697047
0.260785
0.103745
0.0280106
0.999667
0.998937
0.972133
0.857471
0.972133
0.857471
0.665114
0.425086
0.998937
0.955493
0.857471
0.697048
0.857471
0.697048
0.425086
0.103745
0.991968
0.993134
0.752427
0.74264
0.993134
0.999667
0.74264
0.665114
0.992729
0.991935
0.749187
0.751124
0.991935
0.991968
0.751124
0.752427
0.992843
0.993
0.748104
0.747437
0.993
0.992729
0.747437
0.749187
0.993156
0.992975
0.749466
0.748361
0.992976
0.992843
0.748361
0.748104
0.993021
0.992922
0.747305
0.75089
0.992922
0.993156
0.75089
0.749466
0.992776
0.992925
0.742845
0.74705
0.992925
0.993021
0.74705
0.747305
0.287315
0.0264756
0.0811525
0.01376
0.0264756
0.00515268
0.01376
-0.00144636
0.0811525
0.01376
0.0190293
0.000468772
0.966571
0.814097
0.818813
0.45603
0.814097
0.287315
0.45603
0.0811525
0.45603
0.0811525
0.0718907
0.0190293
0.818813
0.45603
0.328601
0.0718907
0.994606
0.990019
1.00059
0.998512
1.00059
0.998512
0.955493
0.743866
0.990019
0.966571
0.998512
0.818813
0.998512
0.818813
0.743866
0.328601
1.00073
0.995633
0.999667
0.998937
0.995633
0.994606
0.998937
0.955493
0.714503
0.279067
0.465196
0.0697168
0.279067
0.0681994
0.0697168
0.0199666
0.0697168
0.0199666
0.0264756
0.00515268
0.465196
0.0697168
0.287315
0.0264756
0.994239
0.959571
0.989022
0.935499
0.989022
0.935499
0.966571
0.814097
0.959571
0.714503
0.935499
0.465196
0.935499
0.465196
0.814097
0.287315
1.006
1.00665
0.994606
0.990019
1.00665
0.994239
0.990019
0.966571
0.422559
0.032133
0.235746
0.0233685
0.235746
0.0233685
0.0681994
0.00873873
0.977498
0.921587
0.930009
0.72834
0.921587
0.422559
0.72834
0.235746
0.72834
0.235746
0.279067
0.0681994
0.930009
0.72834
0.714503
0.279067
0.998402
1.00479
0.996504
0.986892
0.996504
0.986892
0.994239
0.959571
1.00479
0.977498
0.986892
0.930009
0.986892
0.930009
0.959571
0.714503
0.349402
0.0227889
0.422559
0.032133
0.986874
0.785578
0.986318
0.912991
0.785578
0.154569
0.912991
0.349402
0.912991
0.349402
0.921587
0.422559
0.986319
0.912991
0.977498
0.921587
1.00009
0.997504
0.999637
1.00363
0.999637
1.00363
0.998402
1.00479
0.997504
0.986874
1.00363
0.986319
1.00363
0.986319
1.00479
0.977498
0.983125
0.686432
0.982621
0.685281
0.685281
0.0878947
0.785578
0.154569
0.982621
0.685281
0.986874
0.785578
0.999348
0.996146
0.999813
0.997353
0.999813
0.997353
1.00009
0.997504
0.996146
0.983125
0.997353
0.982621
0.997353
0.982621
0.997504
0.986874
-1.81476e-05
-1.63816e-05
-1.34595e-05
2.88678e-05
-1.63816e-05
-2.38906e-05
2.88678e-05
1.83479e-05
-2.38906e-05
-2.46847e-05
1.83479e-05
7.74782e-06
-2.46847e-05
-3.05466e-05
7.74782e-06
1.85481e-05
-3.05466e-05
-4.01834e-05
1.85481e-05
5.384e-05
-4.01834e-05
-2.90874e-05
5.384e-05
6.1785e-05
-2.90874e-05
2.65424e-07
6.1785e-05
1.88739e-05
2.65424e-07
-2.09983e-05
1.88739e-05
3.37591e-05
-2.09983e-05
-7.4033e-05
3.37591e-05
0.000191948
-7.4033e-05
-0.000212111
0.000191948
0.000190652
-0.000212111
-0.000215123
0.000190652
-1.18634e-05
-0.000215123
6.39937e-05
-1.18634e-05
3.22413e-05
-0.00010615
-0.000108187
-3.70469e-06
-9.74638e-06
-0.000108187
-1.34595e-05
-9.74638e-06
-3.48677e-05
-1.34595e-05
2.88678e-05
-3.48677e-05
-2.54975e-05
2.88678e-05
1.83479e-05
-2.54975e-05
-2.7591e-06
1.83479e-05
7.74782e-06
-2.7591e-06
-1.05985e-06
7.74782e-06
1.85481e-05
-1.05985e-06
-1.36558e-05
1.85481e-05
5.384e-05
-1.36558e-05
-2.36295e-05
5.384e-05
6.1785e-05
-2.36295e-05
-1.45214e-05
6.1785e-05
1.8874e-05
-1.45214e-05
1.7168e-05
1.8874e-05
3.37591e-05
1.7168e-05
2.35525e-05
3.37591e-05
0.000191948
2.35525e-05
-3.03243e-05
0.000191948
0.000190652
-3.03243e-05
-7.63138e-05
0.000190652
-1.18634e-05
-7.63138e-05
-4.93484e-05
-1.18634e-05
3.22413e-05
-4.93484e-05
2.07386e-07
-3.70469e-06
-9.74638e-06
-8.61095e-06
-4.93789e-06
-9.74638e-06
-3.48677e-05
-4.93789e-06
9.96202e-06
-3.48677e-05
-2.7591e-06
9.96202e-06
3.08946e-06
-2.7591e-06
-1.36558e-05
3.08946e-06
6.77563e-06
-1.36558e-05
-1.45214e-05
6.77563e-06
1.03233e-05
-1.45214e-05
2.35525e-05
1.03233e-05
-3.92989e-08
2.35525e-05
-7.63138e-05
-3.92984e-08
4.43683e-05
-7.63138e-05
2.07389e-07
4.43683e-05
-3.42932e-06
-8.61095e-06
9.96202e-06
4.94943e-06
-5.85439e-06
9.96202e-06
3.08946e-06
-5.85439e-06
-1.72164e-06
3.08946e-06
6.77564e-06
-1.72164e-06
-3.89864e-06
6.77564e-06
1.03233e-05
-3.89864e-06
-5.75912e-06
1.03233e-05
-3.93034e-08
-5.75912e-06
9.43517e-07
-3.93001e-08
4.43683e-05
9.43517e-07
-2.40773e-05
4.43683e-05
-3.42932e-06
-2.40773e-05
1.21243e-06
4.94943e-06
-5.85439e-06
-3.05805e-06
3.51268e-06
-5.85439e-06
-1.72164e-06
3.51268e-06
9.75095e-07
-1.72164e-06
-3.89864e-06
9.75095e-07
2.30208e-06
-3.89864e-06
-5.75912e-06
2.30208e-06
3.42297e-06
-5.75912e-06
9.43517e-07
3.42297e-06
-1.58413e-06
9.43516e-07
-2.40773e-05
-1.58413e-06
1.27791e-05
-2.40773e-05
1.21243e-06
1.27791e-05
3.8437e-07
-3.05805e-06
3.51268e-06
-3.23902e-06
3.51282e-06
3.51268e-06
9.75095e-07
3.51282e-06
7.94922e-07
9.75095e-07
2.30208e-06
7.94922e-07
2.24561e-06
2.30208e-06
3.42297e-06
2.24561e-06
3.02148e-06
3.42297e-06
-1.58413e-06
3.02148e-06
-3.32262e-07
-1.58413e-06
1.27791e-05
-3.32262e-07
1.18315e-05
1.27791e-05
3.84369e-07
1.18315e-05
-4.29168e-07
8.18149e-05
-6.51114e-06
-0.00010615
-0.000108187
-6.51114e-06
-1.81476e-05
-0.000108187
-1.34595e-05
3.74003e-05
8.18149e-05
9.04083e-05
-0.00010615
-0.000105572
-0.000195774
-0.000212111
-0.000215123
-0.000195774
0.00010266
-0.000215123
6.39937e-05
-3.43766e-05
1.01793e-05
-2.09983e-05
-7.4033e-05
1.01793e-05
-0.000105572
-7.4033e-05
-0.000212111
-2.10282e-05
-2.77432e-05
-2.90874e-05
2.65422e-07
-2.77432e-05
-3.43766e-05
2.65419e-07
-2.09983e-05
-2.93548e-05
-2.1273e-05
-3.05466e-05
-4.01834e-05
-2.1273e-05
-2.10282e-05
-4.01834e-05
-2.90875e-05
-2.11221e-05
-2.89605e-05
-2.38906e-05
-2.46847e-05
-2.89605e-05
-2.93548e-05
-2.46847e-05
-3.05466e-05
-1.92326e-05
-8.05159e-06
-1.81476e-05
-1.63816e-05
-8.05159e-06
-2.11221e-05
-1.63816e-05
-2.38906e-05
0.000270243
2.96288e-05
0.000249208
0.000133662
0.000249208
0.000133662
8.18149e-05
-6.51114e-06
2.96288e-05
-1.92326e-05
0.000133662
0.00010517
0.000133662
0.00010517
-6.51114e-06
-1.81476e-05
0.000457464
0.000270243
0.000444083
0.000249208
0.000444083
0.000249208
3.74003e-05
8.18149e-05
0.00221899
0.00308689
-0.000825753
-0.00111292
0.00308689
-0.00134858
-0.00111292
0.00050789
-0.00111292
0.00050789
-0.000195774
0.000102661
-0.000825752
-0.00111292
-0.000105572
-0.000195774
0.000392767
0.000509994
-0.000141966
-0.000195543
0.000509994
0.00221899
-0.000195543
-0.000825752
-0.000195543
-0.000825753
1.01793e-05
-0.000105572
-0.000141966
-0.000195543
-3.43766e-05
1.01793e-05
0.000419742
0.000400326
-0.000164179
-0.000146816
0.000400326
0.000392767
-0.000146816
-0.000141966
-0.000146816
-0.000141966
-2.77431e-05
-3.43766e-05
-0.000164179
-0.000146816
-2.10282e-05
-2.77432e-05
0.000395506
0.000378162
-0.000147248
-0.000145885
0.000378162
0.000419742
-0.000145885
-0.000164179
-0.000145885
-0.000164179
-2.1273e-05
-2.10282e-05
-0.000147248
-0.000145885
-2.93548e-05
-2.1273e-05
0.000288767
0.000364107
-0.000106471
-0.00013341
0.000364107
0.000395506
-0.00013341
-0.000147248
-0.00013341
-0.000147248
-2.89605e-05
-2.93548e-05
-0.000106471
-0.00013341
-2.11221e-05
-2.89605e-05
0.000391637
0.000222241
-0.000158424
-9.02405e-05
0.000222241
0.000288767
-9.02405e-05
-0.000106471
-9.02405e-05
-0.000106471
-8.0516e-06
-2.11221e-05
-0.000158424
-9.02405e-05
-1.92326e-05
-8.05159e-06
0.000625779
0.000434637
-0.000238661
-0.000176608
0.000434637
0.000391637
-0.000176608
-0.000158424
-0.000176608
-0.000158424
2.96288e-05
-1.92326e-05
-0.000238661
-0.000176608
0.000270243
2.96288e-05
0.000945897
0.000625779
-0.000352761
-0.000238661
-0.000352761
-0.000238661
0.000457464
0.000270243
-0.0066552
0.00324555
0.00308689
-0.00134858
-0.00517685
-0.00665521
0.00221899
0.00308689
0.00734041
0.00757176
-0.000766974
-0.00137438
-0.00137438
-0.00517685
0.000509994
0.00221899
-0.000766974
-0.00137438
0.000392767
0.000509994
0.00841355
0.00763027
-0.000519857
-0.00057374
0.00763027
0.00734041
-0.00057374
-0.000766974
-0.00057374
-0.000766974
0.000400326
0.000392767
-0.000519857
-0.00057374
0.000419742
0.000400326
0.00857065
0.00813827
-0.000451561
-0.000422117
0.00813827
0.00841355
-0.000422117
-0.000519857
-0.000422117
-0.000519857
0.000378162
0.000419742
-0.000451561
-0.000422117
0.000395506
0.000378162
0.00851402
0.0081176
-0.000222188
-0.000387555
0.0081176
0.00857065
-0.000387555
-0.000451561
-0.000387555
-0.000451561
0.000364107
0.000395506
-0.000222188
-0.000387555
0.000288767
0.000364107
0.0086623
0.0073834
-0.000371236
-0.000119679
0.0073834
0.00851402
-0.000119679
-0.000222188
-0.000119679
-0.000222188
0.000222241
0.000288767
-0.000371236
-0.000119679
0.000391637
0.000222241
0.00953081
0.00821253
-0.000641667
-0.000662018
0.00821253
0.0086623
-0.000662018
-0.000371236
-0.000662018
-0.000371236
0.000434637
0.000391637
-0.000641667
-0.000662018
0.000625779
0.000434637
0.0141418
0.00687581
-0.000585621
-0.00211174
0.00687581
0.00953081
-0.00211174
-0.000641667
-0.00211174
-0.000641667
0.000945897
0.000625779
-0.000585621
-0.00211174
0.000948753
0.000945897
0.156289
0.154631
0.00841355
0.00763027
0.748104
0.747437
0.157274
0.156247
0.156247
0.156289
0.00813827
0.00841355
0.157274
0.156247
0.00857065
0.00813827
0.749466
0.748361
0.161274
0.156683
0.748361
0.748104
0.156683
0.157274
0.156683
0.157274
0.0081176
0.00857065
0.161274
0.156683
0.00851402
0.0081176
0.747305
0.75089
0.157132
0.159951
0.75089
0.749466
0.159951
0.161274
0.159951
0.161274
0.0073834
0.00851402
0.157132
0.159951
0.0086623
0.0073834
0.742845
0.74705
0.149407
0.155699
0.74705
0.747305
0.155699
0.157132
0.155699
0.157132
0.00821253
0.0086623
0.149407
0.155699
0.00953081
0.00821253
0.728874
0.742845
0.131649
0.149407
0.131649
0.149407
0.00687581
0.00953081
4.67304e-06
5.64599e-06
7.05565e-07
2.53469e-06
5.64599e-06
-4.52171e-07
2.53469e-06
3.72174e-07
-4.52172e-07
-1.01974e-06
3.72174e-07
1.03145e-06
-1.01974e-06
2.40417e-07
1.03145e-06
-4.32123e-07
2.40417e-07
-6.83168e-08
-4.32123e-07
2.46808e-07
-6.83167e-08
4.20479e-08
2.46808e-07
-1.29512e-07
4.20479e-08
-3.47182e-08
-1.29512e-07
6.92609e-08
-3.47182e-08
-1.71617e-08
6.92609e-08
7.64319e-08
-7.32963e-06
-8.78084e-06
-7.161e-06
-1.32165e-06
-8.78084e-06
1.62569e-07
-1.32165e-06
-7.69276e-07
1.62569e-07
5.74254e-06
-7.69276e-07
6.13141e-07
5.74254e-06
7.05565e-07
6.13141e-07
1.56609e-06
7.05564e-07
2.53469e-06
1.56609e-06
7.53248e-07
2.53469e-06
3.72174e-07
7.53248e-07
-4.46596e-07
3.72174e-07
1.03145e-06
-4.46596e-07
-2.39716e-07
1.03145e-06
-4.32122e-07
-2.39716e-07
1.81853e-07
-4.32122e-07
2.46808e-07
1.81853e-07
-3.90764e-08
2.46808e-07
-1.29512e-07
-3.90764e-08
2.32998e-08
-1.29512e-07
6.92609e-08
2.32998e-08
-1.20216e-08
6.92609e-08
7.64319e-08
-1.20216e-08
-1.07832e-08
6.39938e-05
2.59813e-05
3.22413e-05
-5.34264e-05
2.59813e-05
-7.4793e-06
-5.34264e-05
-7.28553e-06
-7.4793e-06
2.7559e-06
-7.28553e-06
2.02641e-05
2.7559e-06
3.18364e-06
2.02641e-05
-5.46203e-06
3.18364e-06
-3.11575e-06
-5.46203e-06
-6.60356e-06
-3.11575e-06
-7.161e-06
-6.60356e-06
7.57102e-06
-7.161e-06
-1.32165e-06
7.57102e-06
5.24478e-06
-1.32165e-06
-7.69276e-07
5.24478e-06
-3.43597e-06
-7.69276e-07
6.13141e-07
-3.43597e-06
-2.70557e-06
6.13141e-07
1.56609e-06
-2.70557e-06
1.65187e-06
1.56609e-06
-4.46596e-07
1.65187e-06
-8.82536e-07
-4.46596e-07
-2.39716e-07
-8.82536e-07
6.24806e-07
-2.39716e-07
1.81853e-07
6.24806e-07
-2.52221e-07
1.81853e-07
-3.90764e-08
-2.52221e-07
1.61622e-07
-3.90764e-08
2.32998e-08
1.61622e-07
-7.66567e-08
2.32999e-08
-1.20216e-08
-7.66567e-08
2.97945e-08
-1.20216e-08
-1.07832e-08
2.97945e-08
3.14038e-08
3.22413e-05
-5.34264e-05
2.07387e-07
1.21926e-05
-5.34264e-05
-7.28553e-06
1.21926e-05
2.69016e-06
-7.28553e-06
2.02641e-05
2.69016e-06
-5.31641e-07
2.02641e-05
-5.46203e-06
-5.31641e-07
7.94192e-07
-5.46203e-06
-6.60356e-06
7.94193e-07
-2.45744e-07
-6.60356e-06
7.57102e-06
-2.45744e-07
-1.78574e-06
7.57102e-06
-3.43597e-06
-1.78574e-06
5.40686e-07
-3.43597e-06
1.65187e-06
5.40686e-07
-1.86784e-07
1.65187e-06
-8.82536e-07
-1.86784e-07
1.58324e-07
-8.82536e-07
6.24806e-07
1.58324e-07
-1.72845e-07
6.24806e-07
-2.52221e-07
-1.72844e-07
5.55875e-08
-2.52221e-07
1.61622e-07
5.55875e-08
-3.84616e-08
1.61622e-07
-7.66567e-08
-3.84616e-08
1.86964e-08
-7.66567e-08
2.97945e-08
1.86964e-08
-9.04436e-09
2.97944e-08
3.14038e-08
-9.04436e-09
-1.17764e-08
2.07388e-07
2.69016e-06
-3.42932e-06
-4.501e-07
2.69016e-06
7.94192e-07
-4.501e-07
-6.14349e-07
7.94193e-07
-1.78574e-06
-6.14349e-07
1.05257e-06
-1.78574e-06
5.40686e-07
1.05257e-06
-3.7471e-07
5.40686e-07
-1.86784e-07
-3.7471e-07
1.23435e-07
-1.86784e-07
1.58324e-07
1.23435e-07
-8.24734e-08
1.58324e-07
-1.72844e-07
-8.24734e-08
1.00139e-07
-1.72844e-07
5.55875e-08
1.00139e-07
-3.96693e-08
5.55875e-08
-3.84616e-08
-3.96693e-08
2.31031e-08
-3.84616e-08
1.86964e-08
2.31031e-08
-1.15746e-08
1.86964e-08
-9.04436e-09
-1.15746e-08
5.55614e-09
-9.04436e-09
-1.17764e-08
5.55613e-09
5.84232e-09
-3.42932e-06
-4.50101e-07
1.21243e-06
3.04619e-07
-4.501e-07
-6.14349e-07
3.04619e-07
2.35944e-07
-6.1435e-07
1.05257e-06
2.35945e-07
-5.43249e-07
1.05257e-06
-3.7471e-07
-5.43249e-07
2.17547e-07
-3.7471e-07
1.23435e-07
2.17547e-07
-5.75729e-08
1.23435e-07
-8.24734e-08
-5.75729e-08
3.55407e-08
-8.24735e-08
1.00139e-07
3.55407e-08
-5.60741e-08
1.00139e-07
-3.96693e-08
-5.60741e-08
2.45511e-08
-3.96693e-08
2.31031e-08
2.45511e-08
-1.27095e-08
2.31031e-08
-1.15746e-08
-1.27095e-08
6.86451e-09
-1.15746e-08
5.55613e-09
6.86451e-09
-3.7921e-09
5.55614e-09
5.84232e-09
-3.7921e-09
-3.51763e-09
1.21243e-06
3.04619e-07
3.84369e-07
-1.59711e-07
3.04619e-07
2.35945e-07
-1.59711e-07
2.72151e-08
2.35944e-07
-5.43249e-07
2.72152e-08
2.42471e-07
-5.4325e-07
2.17547e-07
2.42471e-07
-1.43368e-07
2.17547e-07
-5.75729e-08
-1.43368e-07
1.71082e-08
-5.75728e-08
3.55407e-08
1.71082e-08
-2.36446e-09
3.55407e-08
-5.60741e-08
-2.36446e-09
3.19065e-08
-5.60741e-08
2.45511e-08
3.19065e-08
-1.86065e-08
2.45511e-08
-1.27095e-08
-1.86065e-08
7.08326e-09
-1.27095e-08
6.86451e-09
7.08326e-09
-4.69773e-09
6.86451e-09
-3.7921e-09
-4.69773e-09
3.37253e-09
-3.7921e-09
-3.51763e-09
3.37253e-09
2.34008e-09
3.8437e-07
-1.59711e-07
-4.29168e-07
-1.30737e-07
-1.59711e-07
2.72151e-08
-1.30737e-07
-1.03378e-07
2.72152e-08
2.42472e-07
-1.03378e-07
2.66767e-07
2.42471e-07
-1.43368e-07
2.66767e-07
-1.19535e-07
-1.43368e-07
1.71082e-08
-1.19535e-07
2.43142e-08
1.71082e-08
-2.36446e-09
2.43142e-08
-1.51936e-08
-2.36446e-09
3.19065e-08
-1.51936e-08
3.08824e-08
3.19065e-08
-1.86065e-08
3.08824e-08
-1.39307e-08
-1.86065e-08
7.08326e-09
-1.39307e-08
6.72457e-09
7.08326e-09
-4.69773e-09
6.72457e-09
-3.90545e-09
-4.69773e-09
3.37253e-09
-3.90545e-09
2.45256e-09
3.37253e-09
2.34008e-09
2.45256e-09
1.96052e-09
-9.18264e-06
4.3413e-06
3.18364e-06
-3.11575e-06
4.34129e-06
-7.32963e-06
-3.11575e-06
-7.161e-06
-1.10389e-05
1.95317e-05
-7.4793e-06
2.75589e-06
1.95317e-05
-9.18264e-06
2.75589e-06
3.18364e-06
0.000102661
7.49041e-06
6.39937e-05
2.59813e-05
7.49042e-06
-1.10389e-05
2.59813e-05
-7.4793e-06
2.34498e-06
9.25057e-06
1.62569e-07
5.74254e-06
9.25057e-06
4.67304e-06
5.74254e-06
7.05565e-07
2.34683e-06
-2.36773e-06
-7.32963e-06
-8.78084e-06
-2.36773e-06
2.34498e-06
-8.78084e-06
1.62569e-07
5.66603e-05
6.65788e-05
-1.35094e-06
-4.27793e-05
-1.35094e-06
-4.27793e-05
-9.18264e-06
4.3413e-06
6.65788e-05
2.34683e-06
-4.27793e-05
1.22056e-06
-4.27793e-05
1.22056e-06
4.3413e-06
-7.32963e-06
0.000175599
-0.000146376
-5.36584e-05
6.18221e-05
-0.000146376
5.66603e-05
6.18222e-05
-1.35095e-06
6.18222e-05
-1.35095e-06
1.95317e-05
-9.18264e-06
-5.36584e-05
6.18221e-05
-1.10389e-05
1.95317e-05
-0.00134858
-0.000127908
0.00050789
6.36908e-05
-0.000127909
0.000175599
6.36907e-05
-5.36584e-05
6.36908e-05
-5.36584e-05
7.49039e-06
-1.10389e-05
0.00050789
6.36908e-05
0.000102661
7.49039e-06
1.05147e-05
1.85178e-06
3.92714e-06
-6.21062e-06
3.92714e-06
-6.21062e-06
2.34498e-06
9.25057e-06
5.1469e-05
4.12008e-06
1.38053e-05
4.68435e-06
4.12008e-06
1.05147e-05
4.68435e-06
3.92714e-06
4.68435e-06
3.92714e-06
-2.36774e-06
2.34498e-06
1.38053e-05
4.68435e-06
2.34682e-06
-2.36773e-06
0.000221751
1.32555e-05
-3.43529e-05
0.000101398
1.32554e-05
5.1469e-05
0.000101398
1.38053e-05
0.000101398
1.38053e-05
6.65788e-05
2.34683e-06
-3.4353e-05
0.000101398
5.66603e-05
6.65788e-05
0.000746286
-0.000679965
-0.000350274
0.000360573
-0.000679966
0.000221751
0.000360573
-3.43529e-05
0.000360573
-3.4353e-05
-0.000146376
5.66603e-05
-0.000350274
0.000360573
0.000175599
-0.000146376
-0.000542491
0.000746286
0.000449157
-0.000350273
0.000449157
-0.000350274
-0.000127908
0.000175599
0.00324555
0.000449157
-0.00134858
-0.000127908
6.5187e-05
-7.78031e-06
4.12008e-06
1.05147e-05
-2.27144e-05
6.5187e-05
5.1469e-05
4.12008e-06
0.000551362
-6.57039e-05
-0.000319865
0.000147578
-6.57037e-05
6.45104e-05