# vtk DataFile Version 2.0
Hex test
ASCII
DATASET UNSTRUCTURED_GRID
POINTS 9580 float
-12 18 0
-12 20 0
-8.16667 18 0
-8.16667 20 0
-12 20 0
-12 22 0
-8.16667 20 0
-8.16667 22 0
-12 22 0
-12 24 0
-8.16667 22 0
-8.16667 24 0
-12 24 0
-12 26 0
-8.16667 24 0
-8.16667 26 0
-8.16667 18 0
-8.16667 20 0
-6 18 0
-6 20 0
-8.16667 20 0
-8.16667 22 0
-6 20 0
-6 22 0
-8.16667 22 0
-8.16667 24 0
-6 22 0
-6 24 0
-8.16667 24 0
-8.16667 26 0
-6 24 0
-6 26 0
-6 18 0
-6 20 0
-4 18 0
-4 20 0
-6 20 0
-6 22 0
-4 20 0
-4 22 0
-6 22 0
-6 24 0
-4 22 0
-4 24 0
-6 24 0
-6 26 0
-4 24 0
-4 26 0
-4 16 0
-4 17 0
-2 16 0
-2 17 0
-4 17 0
-4 18 0
-2 17 0
-2 18 0
-4 18 0
-4 20 0
-2 18 0
-2 20 0
-4 20 0
-4 22 0
-2 20 0
-2 22 0
-4 22 0
-4 24 0
-2 22 0
-2 24 0
-4 24 0
-4 26 0
-2 24 0
-2 26 0
-4 26 0
-4 28 0
-2 26 0
-2 28 0
-2 16 0
-2 17 0
-2.08167e-17 16 0
8.32667e-17 17 0
-2 17 0
-2 18 0
8.32667e-17 17 0
-2.77556e-17 18 0
-2 18 0
-2 19 0
-2.77556e-17 18 0
5.55112e-17 19 0
-2 19 0
-2 20 0
5.55112e-17 19 0
-6.245e-17 20 0
-2 20 0
-2 22 0
-8.32667e-17 20 0
-6.93889e-17 22 0
-2 22 0
-2 24 0
-4.16334e-17 22 0
-5.55112e-17 24 0
-2 24 0
-2 26 0
-2.77556e-17 24 0
-6.93889e-17 26 0
-2 26 0
-2 28 0
-8.32667e-17 26 0
-5.55112e-17 28 0
2.77556e-17 18 0
-2.42861e-17 19 0
2 18 0
2 19 0
-2.42861e-17 19 0
-6.93889e-18 20 0
2 19 0
2 20 0
0 20 0
-6.93889e-18 21 0
2 20 0
2 21 0
-6.93889e-18 21 0
-2.77556e-17 22 0
2 21 0
2 22 0
-4.16334e-17 22 0
2.94903e-17 23 0
2 22 0
2 23 0
2.94903e-17 23 0
2.77556e-17 24 0
2 23 0
2 24 0
2.77556e-17 24 0
2.94903e-17 25 0
2 24 0
2 25 0
2.94903e-17 25 0
-4.16334e-17 26 0
2 25 0
2 26 0
-2.77556e-17 26 0
-6.93889e-18 27 0
2 26 0
2 27 0
-6.93889e-18 27 0
0 28 0
2 27 0
2 28 0
-6.93889e-18 28 0
3.1225e-17 29 0
2 28 0
2 29 0
3.1225e-17 29 0
2.77556e-17 30 0
2 29 0
2 30 0
2 20 0
2 21 0
4 20 0
4 21 0
2 21 0
2 22 0
4 21 0
4 22 0
2 22 0
2 23 0
4 22 0
4 23 0
2 23 0
2 24 0
4 23 0
4 24 0
2 24 0
2 25 0
4 24 0
4 25 0
2 25 0
2 26 0
4 25 0
4 26 0
2 26 0
2 27 0
4 26 0
4 27 0
2 27 0
2 28 0
4 27 0
4 28 0
3.46945e-17 16 0
5.89806e-17 17 0
2 16 0
2 17 0
3.46945e-17 17 0
2.77556e-17 18 0
2 17 0
2 18 0
2 15 0
2 16 0
3 15 0
3 16 0
3 15 0
3 16 0
4 15 0
4 16 0
2 16 0
2 17 0
3 16 0
3 17 0
3 16 0
3 17 0
4 16 0
4 17 0
2 17 0
2 18 0
3 17 0
3 18 0
3 17 0
3 18 0
4 17 0
4 18 0
2 18 0
2 19 0
4 18 0
4 19 0
2 19 0
2 20 0
4 19 0
4 20 0
2 28 0
2 29 0
4 28 0
4 29 0
2 29 0
2 30 0
4 29 0
4 30 0
4 15 0
4 16 0
5 15 0
5 16 0
5 15 0
5 16 0
6 15 0
6 16 0
4 16 0
4 17 0
5 16 0
5 17 0
4 17 0
4 18 0
5 17 0
5 18 0
5 17 0
5 18 0
6 17 0
6 18 0
5 16 0
5 17 0
6 16 0
6 17 0
4 18 0
4 19 0
5 18 0
5 19 0
5 18 0
5 19 0
6 18 0
6 19 0
4 19 0
4 20 0
5 19 0
5 20 0
5 19 0
5 20 0
6 19 0
6 20 0
4 20 0
4 21 0
6 20 0
6 21 0
4 21 0
4 22 0
6 21 0
6 22 0
4 22 0
4 23 0
6 22 0
6 23 0
4 23 0
4 24 0
6 23 0
6 24 0
4 24 0
4 25 0
6 24 0
6 25 0
4 25 0
4 26 0
6 25 0
6 26 0
4 26 0
4 27 0
6 26 0
6 27 0
4 27 0
4 28 0
6 27 0
6 28 0
4 28 0
4 29 0
5 28 0
5 29 0
5 28 0
5 29 0
6 28 0
6 29 0
4 29 0
4 30 0
5 29 0
5 30 0
5 29 0
5 30 0
6 29 0
6 30 0
6 15 0
6 16 0
7 15 0
7 16 0
6 16 0
6 17 0
7 16 0
7 17 0
6 17 0
6 18 0
7 17 0
7 18 0
7 17 0
7 18 0
8 17 0
8 18 0
7 16 0
7 17 0
8 16 0
8 17 0
6 18 0
6 19 0
7 18 0
7 19 0
6 19 0
6 20 0
7 19 0
7 20 0
7 19 0
7 20 0
8 19 0
8 20 0
7 18 0
7 19 0
8 18 0
8 19 0
6 20 0
6 21 0
7 20 0
7 21 0
6 21 0
6 22 0
7 21 0
7 22 0
7 21 0
7 22 0
8 21 0
8 22 0
7 20 0
7 21 0
8 20 0
8 21 0
6 22 0
6 23 0
7 22 0
7 23 0
6 23 0
6 24 0
7 23 0
7 24 0
7 23 0
7 24 0
8 23 0
8 24 0
7 22 0
7 23 0
8 22 0
8 23 0
6 24 0
6 25 0
7 24 0
7 25 0
6 25 0
6 26 0
7 25 0
7 26 0
7 25 0
7 26 0
8 25 0
8 26 0
7 24 0
7 25 0
8 24 0
8 25 0
6 26 0
6 27 0
7 26 0
7 27 0
6 27 0
6 28 0
7 27 0
7 28 0
7 27 0
7 28 0
8 27 0
8 28 0
7 26 0
7 27 0
8 26 0
8 27 0
6 28 0
6 29 0
7 28 0
7 29 0
6 29 0
6 30 0
7 29 0
7 30 0
7 29 0
7 30 0
8 29 0
8 30 0
7 28 0
7 29 0
8 28 0
8 29 0
6 30 0
6 31 0
7 30 0
7 31 0
7 30 0
7 31 0
8 30 0
8 31 0
8 17 0
8 18 0
9 17 0
9 18 0
8 18 0
8 19 0
9 18 0
9 19 0
8 19 0
8 20 0
9 19 0
9 20 0
9 19 0
9 20 0
10 19 0
10 20 0
8 20 0
8 21 0
9 20 0
9 21 0
8 21 0
8 22 0
9 21 0
9 22 0
9 21 0
9 22 0
10 21 0
10 22 0
9 20 0
9 21 0
10 20 0
10 21 0
8 22 0
8 23 0
9 22 0
9 23 0
8 23 0
8 24 0
9 23 0
9 24 0
9 23 0
9 24 0
10 23 0
10 24 0
9 22 0
9 23 0
10 22 0
10 23 0
8 24 0
8 25 0
9 24 0
9 25 0
8 25 0
8 26 0
9 25 0
9 26 0
9 25 0
9 26 0
10 25 0
10 26 0
9 24 0
9 25 0
10 24 0
10 25 0
8 26 0
8 27 0
9 26 0
9 27 0
8 27 0
8 28 0
9 27 0
9 28 0
9 27 0
9 28 0
10 27 0
10 28 0
9 26 0
9 27 0
10 26 0
10 27 0
8 28 0
8 29 0
9 28 0
9 29 0
8 29 0
8 30 0
9 29 0
9 30 0
9 28 0
9 29 0
10 28 0
10 29 0
10 21 0
10 22 0
11 21 0
11 22 0
10 22 0
10 23 0
11 22 0
11 23 0
10 23 0
10 24 0
11 23 0
11 24 0
11 23 0
11 24 0
12 23 0
12 24 0
11 22 0
11 23 0
12 22 0
12 23 0
10 24 0
10 25 0
11 24 0
11 25 0
10 25 0
10 26 0
11 25 0
11 26 0
11 25 0
11 26 0
12 25 0
12 26 0
11 24 0
11 25 0
12 24 0
12 25 0
10 26 0
10 27 0
11 26 0
11 27 0
14 24 0
14 25 0
16 24 0
16 25 0
14 25 0
14 26 0
16 25 0
16 26 0
14 26 0
14 27 0
16 26 0
16 27 0
14 27 0
14 28 0
16 27 0
16 28 0
14 28 0
14 29 0
16 28 0
16 29 0
14 29 0
14 30 0
16 29 0
16 30 0
14 30 0
14 31 0
16 30 0
16 31 0
14 31 0
14 32 0
16 31 0
16 32 0
14 32 0
14 33 0
16 32 0
16 33 0
14 33 0
14 34 0
16 33 0
16 34 0
16 24 0
16 25 0
18 24 0
18 25 0
16 25 0
16 26 0
18 25 0
18 26 0
16 26 0
16 27 0
18 26 0
18 27 0
16 27 0
16 28 0
18 27 0
18 28 0
16 28 0
16 29 0
18 28 0
18 29 0
16 29 0
16 30 0
18 29 0
18 30 0
16 30 0
16 31 0
18 30 0
18 31 0
16 31 0
16 32 0
18 31 0
18 32 0
16 32 0
16 33 0
18 32 0
18 33 0
16 33 0
16 34 0
18 33 0
18 34 0
16 34 0
16 35 0
18 34 0
18 35 0
16 35 0
16 36 0
18 35 0
18 36 0
18 24 0
18 26 0
20 24 0
20 26 0
18 26 0
18 28 0
20 26 0
20 28 0
18 28 0
18 30 0
20 28 0
20 30 0
18 30 0
18 32 0
20 30 0
20 32 0
18 32 0
18 34 0
20 32 0
20 34 0
18 34 0
18 35 0
20 34 0
20 35 0
18 35 0
18 36 0
20 35 0
20 36 0
20 24 0
20 26 0
22 24 0
22 26 0
20 26 0
20 28 0
22 26 0
22 28 0
20 28 0
20 30 0
22 28 0
22 30 0
20 30 0
20 32 0
22 30 0
22 32 0
20 32 0
20 34 0
22 32 0
22 34 0
20 34 0
20 36 0
22 34 0
22 36 0
22 24 0
22 26 0
24 24 0
24 26 0
22 26 0
22 28 0
24 26 0
24 28 0
22 28 0
22 30 0
24 28 0
24 30 0
22 30 0
22 32 0
24 30 0
24 32 0
22 32 0
22 34 0
24 32 0
24 34 0
22 34 0
22 36 0
24 34 0
24 36 0
22 38 0
22 39 0
23 38 0
23 39 0
22 39 0
22 40 0
23 39 0
23 40 0
23 38 0
23 39 0
24 38 0
24 39 0
22 36 0
22 37 0
23 36 0
23 37 0
23 36 0
23 37 0
24 36 0
24 37 0
22 37 0
22 38 0
23 37 0
23 38 0
23 37 0
23 38 0
24 37 0
24 38 0
20 40 0
20 41 0
21 40 0
21 41 0
20 41 0
20 42 0
21 41 0
21 42 0
21 40 0
21 41 0
22 40 0
22 41 0
20 38 0
20 39 0
21 38 0
21 39 0
20 39 0
20 40 0
21 39 0
21 40 0
21 39 0
21 40 0
22 39 0
22 40 0
21 38 0
21 39 0
22 38 0
22 39 0
20 36 0
20 37 0
21 36 0
21 37 0
21 36 0
21 37 0
22 36 0
22 37 0
20 37 0
20 38 0
21 37 0
21 38 0
21 37 0
21 38 0
22 37 0
22 38 0
18 42 0
18 43 0
19 42 0
19 43 0
18 40 0
18 41 0
19 40 0
19 41 0
18 41 0
18 42 0
19 41 0
19 42 0
19 41 0
19 42 0
20 41 0
20 42 0
19 40 0
19 41 0
20 40 0
20 41 0
18 38 0
18 39 0
19 38 0
19 39 0
18 39 0
18 40 0
19 39 0
19 40 0
19 39 0
19 40 0
20 39 0
20 40 0
19 38 0
19 39 0
20 38 0
20 39 0
18 36 0
18 37 0
19 36 0
19 37 0
19 36 0
19 37 0
20 36 0
20 37 0
18 37 0
18 38 0
19 37 0
19 38 0
19 37 0
19 38 0
20 37 0
20 38 0
17 42 0
17 43 0
18 42 0
18 43 0
16 40 0
16 41 0
17 40 0
17 41 0
16 41 0
16 42 0
17 41 0
17 42 0
17 41 0
17 42 0
18 41 0
18 42 0
17 40 0
17 41 0
18 40 0
18 41 0
16 38 0
16 39 0
17 38 0
17 39 0
16 39 0
16 40 0
17 39 0
17 40 0
17 39 0
17 40 0
18 39 0
18 40 0
17 38 0
17 39 0
18 38 0
18 39 0
16 36 0
16 37 0
17 36 0
17 37 0
17 36 0
17 37 0
18 36 0
18 37 0
16 37 0
16 38 0
17 37 0
17 38 0
17 37 0
17 38 0
18 37 0
18 38 0
14 40 0
14 41 0
15 40 0
15 41 0
15 41 0
15 42 0
16 41 0
16 42 0
15 40 0
15 41 0
16 40 0
16 41 0
14 38 0
14 39 0
15 38 0
15 39 0
14 39 0
14 40 0
15 39 0
15 40 0
15 39 0
15 40 0
16 39 0
16 40 0
15 38 0
15 39 0
16 38 0
16 39 0
14 36 0
14 37 0
15 36 0
15 37 0
15 36 0
15 37 0
16 36 0
16 37 0
14 37 0
14 38 0
15 37 0
15 38 0
15 37 0
15 38 0
16 37 0
16 38 0
14 34 0
14 35 0
16 34 0
16 35 0
14 35 0
14 36 0
16 35 0
16 36 0
13 40 0
13 41 0
14 40 0
14 41 0
12 38 0
12 39 0
13 38 0
13 39 0
12 39 0
12 40 0
13 39 0
13 40 0
13 39 0
13 40 0
14 39 0
14 40 0
13 38 0
13 39 0
14 38 0
14 39 0
12 36 0
12 37 0
13 36 0
13 37 0
12 37 0
12 38 0
13 37 0
13 38 0
13 37 0
13 38 0
14 37 0
14 38 0
13 36 0
13 37 0
14 36 0
14 37 0
12 34 0
12 35 0
13 34 0
13 35 0
13 34 0
13 35 0
14 34 0
14 35 0
12 35 0
12 36 0
13 35 0
13 36 0
13 35 0
13 36 0
14 35 0
14 36 0
12 32 0
12 33 0
14 32 0
14 33 0
12 33 0
12 34 0
14 33 0
14 34 0
12 30 0
12 31 0
14 30 0
14 31 0
12 31 0
12 32 0
14 31 0
14 32 0
12 28 0
12 29 0
14 28 0
14 29 0
12 29 0
12 30 0
14 29 0
14 30 0
12 26 0
12 27 0
14 26 0
14 27 0
12 27 0
12 28 0
14 27 0
14 28 0
12 24 0
12 25 0
14 24 0
14 25 0
12 25 0
12 26 0
14 25 0
14 26 0
9 29 0
9 30 0
10 29 0
10 30 0
8 30 0
8 31 0
9 30 0
9 31 0
8 31 0
8 32 0
9 31 0
9 32 0
9 31 0
9 32 0
10 31 0
10 32 0
9 30 0
9 31 0
10 30 0
10 31 0
9 33 0
9 34 0
10 33 0
10 34 0
9 32 0
9 33 0
10 32 0
10 33 0
9 34 0
9 35 0
10 34 0
10 35 0
11 39 0
11 40 0
12 39 0
12 40 0
11 38 0
11 39 0
12 38 0
12 39 0
10 36 0
10 37 0
11 36 0
11 37 0
10 37 0
10 38 0
11 37 0
11 38 0
11 37 0
11 38 0
12 37 0
12 38 0
11 36 0
11 37 0
12 36 0
12 37 0
10 34 0
10 35 0
11 34 0
11 35 0
10 35 0
10 36 0
11 35 0
11 36 0
11 35 0
11 36 0
12 35 0
12 36 0
11 34 0
11 35 0
12 34 0
12 35 0
10 32 0
10 33 0
11 32 0
11 33 0
10 33 0
10 34 0
11 33 0
11 34 0
11 33 0
11 34 0
12 33 0
12 34 0
11 32 0
11 33 0
12 32 0
12 33 0
10 30 0
10 31 0
11 30 0
11 31 0
10 31 0
10 32 0
11 31 0
11 32 0
11 31 0
11 32 0
12 31 0
12 32 0
11 30 0
11 31 0
12 30 0
12 31 0
10 27 0
10 28 0
11 27 0
11 28 0
11 27 0
11 28 0
12 27 0
12 28 0
11 26 0
11 27 0
12 26 0
12 27 0
10 28 0
10 29 0
11 28 0
11 29 0
10 29 0
10 30 0
11 29 0
11 30 0
11 29 0
11 30 0
12 29 0
12 30 0
11 28 0
11 29 0
12 28 0
12 29 0
-12 46 0
-12 48 0
-8.16667 46 0
-8.16667 48 0
-12 48 0
-12 50 0
-8.16667 48 0
-8.16667 50 0
-12 50 0
-12 52 0
-8.16667 50 0
-8.16667 52 0
-12 52 0
-12 54 0
-8.16667 52 0
-8.16667 54 0
-12 54 0
-12 56.1667 0
-8.16667 54 0
-8.16667 56.1667 0
[...]
POINT_DATA 9580
SCALARS phi float 1
LOOKUP_TABLE default
2.76216e-05
3.22205e-05
2.58927e-05
2.75032e-05
3.22205e-05
5.43022e-05
2.75032e-05
5.54867e-05
5.43022e-05
3.53257e-05
5.54867e-05
3.62359e-05
3.53257e-05
4.57807e-05
3.62359e-05
4.68395e-05
2.58927e-05
2.75032e-05
-5.24128e-05
-5.91936e-05
2.75032e-05
5.54867e-05
-5.91936e-05
-9.53549e-05
5.54867e-05
3.62359e-05
-9.53549e-05
-6.30737e-05
3.62359e-05
4.68395e-05
-6.30737e-05
-8.10798e-05
-5.24128e-05
-5.91936e-05
9.87964e-05
0.000111515
-5.91936e-05
-9.53549e-05
0.000111515
0.000170206
-9.53549e-05
-6.30737e-05
0.000170206
0.000112281
-6.30737e-05
-8.10798e-05
0.000112281
0.00014323
-6.87045e-06
3.55434e-05
-1.94979e-05
8.99505e-05
3.55434e-05
9.87964e-05
8.99505e-05
-9.49816e-05
9.87964e-05
0.000111515
-9.49816e-05
-0.000191435
0.000111515
0.000170206
-0.000191435
-0.000314656
0.000170206
0.000112281
-0.000314656
-0.000202767
0.000112281
0.00014323
-0.000202767
-0.000265304
0.00014323
0.000147632
-0.000265304
-0.000280094
-1.94979e-05
8.99505e-05
-3.62303e-05
0.000748305
8.99505e-05
-9.49816e-05
0.000748305
0.000799344
-9.49816e-05
-0.00018007
0.000799344
0.000524313
-0.00018007
-0.000191435
0.000524313
0.000424779
-0.000191435
-0.000314656
0.000424779
0.000625761
-0.000314656
-0.000202767
0.000625761
0.000387153
-0.000202767
-0.000265304
0.000387153
0.000517032
-0.000265304
-0.000280094
0.000517032
0.000504419
0.000799344
0.000524313
-4.24903e-05
-0.000750581
0.000524313
0.000424779
-0.000750581
-0.000666353
0.000424779
0.000534477
-0.000666353
-0.000650938
0.000534477
0.000625761
-0.000650938
-0.00108584
0.000625761
0.000518087
-0.00108584
-0.000988168
0.000518087
0.000387153
-0.000988168
-0.00071588
0.000387153
0.000423035
-0.00071588
-0.000754624
0.000423035
0.000517032
-0.000754624
-0.0010047
0.000517032
0.000530582
-0.0010047
-0.000933047
0.000530582
0.000504419
-0.000933047
-0.000908479
0.000504419
0.00050204
-0.000908479
-0.00050779
0.00050204
0.000401798
-0.00050779
6.21444e-05
-0.000666353
-0.000650938
0.00121424
0.00170735
-0.000650938
-0.00108584
0.00170735
0.00166383
-0.00108584
-0.000988168
0.00166383
0.00143567
-0.000988168
-0.00071588
0.00143567
0.00128132
-0.00071588
-0.000754624
0.00128132
0.00128066
-0.000754624
-0.0010047
0.00128066
0.00139115
-0.0010047
-0.000933047
0.00139115
0.00168524
-0.000933047
-0.000908479
0.00168524
0.00159117
-3.62303e-05
0.000748305
5.384e-05
0.000161241
0.000748305
0.000799344
0.000161241
-4.24903e-05
-0.000214079
5.384e-05
0.000917934
-0.000580666
0.000917934
-0.000580666
0.000490471
-0.000840081
5.384e-05
0.000161241
-0.000580666
0.00106687
-0.000580666
0.00106687
-0.000840081
-0.00091162
0.000161241
-4.24904e-05
0.00106687
0.00149014
0.00106687
0.00149014
-0.00091162
-0.00064299
-4.24904e-05
-0.000750581
-0.00064299
0.000449154
-0.000750581
-0.000666353
0.000449154
0.00121424
-0.000908479
-0.00050779
0.00159117
0.00087998
-0.00050779
6.21444e-05
0.00087998
-0.000336071
0.000490471
-0.000840081
-0.000828807
-0.000933914
-0.000828807
-0.000933914
-0.000584839
8.04695e-06
-0.000840081
-0.00091162
-0.000933914
-0.00856293
-0.00091162
-0.00064299
-0.00856293
-0.00909297
-0.00856293
-0.00909297
-0.00722627
-0.00629096
-0.000933914
-0.00856293
8.04698e-06
-0.00722627
-0.00064299
0.000449154
-0.00909297
-0.00325424
-0.00909297
-0.00325424
-0.00629096
-0.00113326
0.000449154
0.00121424
-0.00325424
-0.00275168
-0.00325424
-0.00275168
-0.00113326
0.00103684
0.00121424
0.00170735
0.00103684
0.00127837
0.00170735
0.00166383
0.00127837
0.000931418
0.00166383
0.00143567
0.000931418
0.000761125
0.00143567
0.00128132
0.000761125
0.000823161
0.00128132
0.00128066
0.000823162
0.000791155
0.00128066
0.00139115
0.000791154
0.000727968
0.00139115
0.00168524
0.000727968
0.00117212
0.00168524
0.00159117
0.00117212
0.0010833
0.00159117
0.00087998
-0.00371223
-0.00412835
-0.00371223
-0.00412835
0.00108329
-0.00127087
0.00087998
-0.000336071
-0.00412835
-0.0079376
-0.00412835
-0.0079376
-0.00127087
-0.00709821
-0.000584839
8.04683e-06
-0.00385968
0.000978464
8.04701e-06
-0.00722627
0.000978463
0.00560245
-0.00722627
-0.00629096
0.00560245
0.00962816
0.00560245
0.00962816
0.0367972
0.107297
0.000978464
0.00560245
0.0198505
0.0367972
-0.00629096
-0.00113326
0.00962816
0.0099081
-0.00113326
0.00103684
0.0099081
0.00987187
0.0099081
0.00987187
0.163259
0.137876
0.00962816
0.0099081
0.107297
0.163259
0.00103684
0.00127837
0.00987187
0.00940008
0.00127837
0.000931418
0.00940008
0.0073229
0.00940008
0.00732291
0.0776864
0.0374907
0.00987187
0.00940008
0.137876
0.0776864
0.000931418
0.000761124
0.0073229
0.00619474
0.000761125
0.000823161
0.00619474
0.00594872
0.00619474
0.00594872
0.0257724
0.0247178
0.0073229
0.00619474
0.0374907
0.0257723
0.000823161
0.000791154
0.00594872
0.00585346
0.000791154
0.000727968
0.00585346
0.00585975
0.00585346
0.00585975
0.0227224
0.0242954
0.00594872
0.00585345
0.0247178
0.0227224
0.000727968
0.00117212
0.00585975
0.00846407
0.00117212
0.00108329
0.00846407
0.00930242
0.00846407
0.00930242
0.0498985
0.110278
0.00585975
0.00846408
0.0242954
0.0498985
0.00108329
-0.00127087
0.00930242
0.00981682
-0.00127087
-0.00709821
0.00981682
0.00793047
0.00981682
0.00793047
0.132803
0.0589425
0.00930242
0.00981682
0.110278
0.132803
-0.00709821
-0.00433067
0.00793047
0.00613782
0.00793047
0.00613782
0.0589425
0.032602
0.0367972
0.107297
0.437802
0.696022
0.107297
0.163259
0.696022
0.801973
0.163259
0.137876
0.801973
0.763504
0.801973
0.763504
0.988718
0.987275
0.137876
0.0776864
0.763504
0.631701
0.0776864
0.0374907
0.631701
0.463046
0.631701
0.463046
0.976601
0.949166
0.763504
0.631701
0.987275
0.976601
0.0374907
0.0257724
0.463046
0.402752
0.0257724
0.0247178
0.402752
0.391834
0.402752
0.391834
0.934852
0.933433
0.463046
0.402752
0.949166
0.934852
0.0247178
0.0227224
0.391834
0.383534
0.0227224
0.0242954
0.383534
0.388713
0.383534
0.388713
0.929345
0.930958
0.391834
0.383534
0.933433
0.929345
0.0242954
0.0498985
0.388713
0.52483
0.0498985
0.110278
0.52483
0.718848
0.52483
0.718848
0.959731
0.985374
0.388713
0.52483
0.930958
0.959731
0.110278
0.132803
0.718848
0.759277
0.132803
0.0589425
0.759277
0.571904
0.718848
0.759277
0.985374
0.987392
0.976601
0.949166
0.994481
0.991391
0.949166
0.934852
0.991391
0.990829
0.934852
0.933433
0.990829
0.99066
0.990829
0.99066
0.998355
0.9982
0.991391
0.990829
0.998527
0.998355
0.933433
0.929345
0.99066
0.990635
0.929345
0.930958
0.990635
0.990615
0.990635
0.990615
0.998321
0.998376
0.99066
0.990635
0.9982
0.998321
0.930958
0.959731
0.990615
0.992482
0.998855
0.998728
1.00067
1.00088
0.998728
0.998569
1.00088
1.00086
0.998569
0.998796
1.00086
1.00029
0.998796
0.999556
1.00029
1.00016
0.999556
0.999653
1.00016
1.00043
0.999653
0.998937
1.00043
1.00042
0.998937
0.998284
1.00042
1.00077
0.998284
0.997872
1.00077
0.99978
0.997872
1.00029
0.99978
0.998414
1.00029
1.00244
0.998414
0.999214
1.00067
1.00088
0.999563
0.999578
1.00088
1.00086
0.999578
0.999568
1.00086
1.00029
0.999568
0.999626
1.00029
1.00016
0.999626
0.999808
1.00016
1.00043
0.999808
1.00006
1.00043
1.00042
1.00006
0.99994
1.00042
1.00077
0.99994
0.999241
1.00077
0.99978
0.999241
0.999063
0.99978
0.998414
0.999063
1.00007
0.998414
0.999214
1.00007
0.999852
0.999214
1.00224
0.999852
0.99704
1.00224
0.993488
0.99704
0.999194
0.999563
0.999568
1.00021
1.00017
0.999568
0.999808
1.00017
1.00008
0.999808
0.99994
1.00008
0.999954
0.99994
0.999063
0.999954
1.00035
0.999063
0.999852
1.00035
0.999754
0.999852
0.99704
0.999754
1.00206
0.99704
0.999194
1.00206
0.999617
1.00021
1.00017
1.00005
0.999811
1.00017
1.00008
0.999811
1.00041
1.00008
0.999954
1.00041
0.999421
0.999954
1.00035
0.999421
1.00093
1.00035
0.999754
1.00093
0.997789
0.999754
0.999617
0.997789
0.998452
1.00005
0.999811
0.999902
0.999712
0.999811
1.00041
0.999712
1.00006
1.00041
0.999421
1.00006
0.999312
0.999421
1.00093
0.999312
1.00085
1.00093
0.997789
1.00085
0.999082
0.997789
0.998452
0.999083
0.999057
0.92758
0.370238
0.934186
0.393106
0.370238
0.0207356
0.393106
0.0235062
0.934186
0.393106
0.959738
0.514636
0.998452
0.988883
0.99864
0.989777
0.99864
0.989777
0.999057
0.992477
0.988883
0.92758
0.989777
0.934186
0.989777
0.934186
0.992477
0.959738
0.107992
0.0143294
0.0388375
0.0112145
0.0143294
-0.00404405
0.0112145
-0.00462922
0.0388375
0.0112145
0.0207356
0.00743742
0.980289
0.695498
0.951591
0.48183
0.695498
0.107992
0.48183
0.0388375
0.48183
0.0388375
0.370238
0.0207356
0.951591
0.48183
0.92758
0.370238
0.999617
0.995916
0.998951
0.992291
0.998951
0.992291
0.998452
0.988883
0.995916
0.980289
0.992291
0.951591
0.992291
0.951591
0.988883
0.92758
0.00692201
-0.00227786
0.00282111
-0.000802802
0.349669
0.0296699
0.26278
0.0190916
0.0296699
0.00692201
0.0190916
0.00282111
0.0190916
0.00282111
0.0143294
-0.00404405
0.26278
0.0190916
0.107992
0.0143294
0.981825
0.895619
0.98538
0.867531
0.895619
0.349669
0.867531
0.26278
0.867531
0.26278
0.695498
0.107992
0.98538
0.867531
0.980289
0.695498
0.999194
1.00344
0.999785
1.00051
0.999785
1.00051
0.999617
0.995916
1.00344
0.981825
1.00051
0.98538
1.00051
0.98538
0.995916
0.980289
0.0032739
-0.000315356
0.00692201
-0.00227786
0.107608
0.0173291
0.253991
0.0285611
0.0173291
-0.000109703
0.0285611
0.0032739
0.0285611
0.0032739
0.0296699
0.00692201
0.253991
0.0285611
0.349669
0.0296699
0.83572
0.477479
0.961545
0.793315
0.477479
0.107608
0.793315
0.253991
0.793315
0.253991
0.895619
0.349669
0.961545
0.793315
0.981825
0.895619
0.993488
0.966658
0.997483
0.992094
0.997483
0.992094
0.999194
1.00344
0.966658
0.83572
0.992094
0.961545
0.992094
0.961545
1.00344
0.981825
0.0069209
0.00148052
0.0353067
0.00341297
0.00341297
0.00127227
0.0173291
-0.000109703
0.0353067
0.00341297
0.107608
0.0173291
0.231543
0.0470116
0.516916
0.150658
0.0470116
0.0069209
0.150658
0.0353067
0.150658
0.0353067
0.477479
0.107608
0.516916
0.150658
0.83572
0.477479
0.950753
0.716581
0.98304
0.890465
0.98304
0.890465
0.993488
0.966658
0.716581
0.231543
0.890465
0.516916
0.890465
0.516916
0.966658
0.83572
1.00244
0.989962
0.999214
1.00224
0.989962
0.950753
1.00224
0.993488
0.000121082
0.000962128
0.0069209
0.00148052
0.0212428
0.00153721
0.0821357
0.0150023
0.00153721
0.00107932
0.0150023
0.000121081
0.0150023
0.000121081
0.0470116
0.0069209
0.0821357
0.0150023
0.231543
0.0470116
0.639799
0.16486
0.845683
0.409129
0.16486
0.0212428
0.409129
0.0821357
0.409129
0.0821357
0.716581
0.231543
0.845683
0.409129
0.950752
0.716581
0.935706
0.865108
1.00317
0.976733
1.00317
0.976733
1.00244
0.989962
0.865108
0.639799
0.976733
0.845683
0.976733
0.845683
0.989962
0.950753
0.995218
0.978918
0.997872
1.00029
0.978918
0.935706
1.00029
1.00244
0.999107
0.998297
0.998937
0.998284
0.998297
0.995218
0.998284
0.997872
0.999648
0.999987
0.999556
0.999653
0.999987
0.999107
0.999653
0.998937
0.998376
0.998695
0.998569
0.998796
0.998696
0.999648
0.998796
0.999556
0.9982
0.998321
0.998855
0.998728
0.998321
0.998376
0.998728
0.99857
0.759277
0.571904
0.987392
0.967516
0.0589425
0.032602
0.571904
0.358906
0.032602
0.00382657
0.358906
0.284867
0.358906
0.284867
0.91142
0.870378
0.571904
0.358906
0.967516
0.91142
0.613346
0.620646
0.772816
0.574636
0.284867
0.613347
0.870378
0.772816
0.620646
0.57312
0.574636
0.579215
0.0107115
-0.00261717
0.00153721
0.00107932
0.0878131
0.0107115
0.0212428
0.00153721
0.606888
0.479911
0.654806
0.401183
0.479911
0.123563
0.401183
0.0878131
0.401183
0.0878131
0.16486
0.0212428
0.654806
0.401183
0.639799
0.16486
0.574636
0.579215
0.748897
0.686519
0.579215
0.606888
0.686519
0.654806
0.686519
0.654806
0.865108
0.639799
0.748897
0.686519
0.935706
0.865108
0.870378
0.772816
0.976515
0.906367
0.772816
0.574636
0.906367
0.748897
0.906367
0.748897
0.978918
0.935706
0.976515
0.906367
0.995218
0.978918
0.967516
0.91142
0.993182
0.989647
0.91142
0.870378
0.989647
0.976515
0.989647
0.976515
0.998297
0.995218
0.993182
0.989647
0.999107
0.998297
0.959731
0.985374
0.992482
0.997133
0.992482
0.997133
0.998695
0.999648
0.990615
0.992483
0.998376
0.998696
0.985374
0.987392
0.997133
0.998552
0.987392
0.967516
0.998552
0.993182
0.998552
0.993182
0.999987
0.999107
0.997133
0.998552
0.999648
0.999987
-5.68973e-07
3.30572e-07
-5.65411e-07
3.32927e-07
3.30572e-07
-1.72976e-07
3.32927e-07
-1.7261e-07
-1.72976e-07
9.44071e-08
-1.7261e-07
9.52238e-08
9.44071e-08
-5.46007e-08
9.52237e-08
-5.49437e-08
-5.46007e-08
3.27884e-08
-5.49437e-08
3.30729e-08
3.27884e-08
3.01982e-08
3.30729e-08
3.04447e-08
-5.65411e-07
3.32927e-07
9.28079e-07
-5.40154e-07
3.32927e-07
-1.7261e-07
-5.40154e-07
2.81754e-07
-1.7261e-07
9.52237e-08
2.81754e-07
-1.53877e-07
9.52238e-08
-5.49437e-08
-1.53877e-07
8.98312e-08
-5.49437e-08
3.30729e-08
8.98312e-08
-5.48715e-08
3.30729e-08
3.04447e-08
-5.48715e-08
-4.92642e-08
9.2808e-07
-5.40154e-07
-1.59404e-06
9.25244e-07
-5.40154e-07
2.81754e-07
9.25244e-07
-4.82824e-07
2.81754e-07
-1.53877e-07
-4.82824e-07
2.63827e-07
-1.53877e-07
8.98312e-08
2.63827e-07
-1.54665e-07
8.98313e-08
-5.48715e-08
-1.54665e-07
9.53967e-08
-5.48716e-08
-4.92642e-08
9.53967e-08
8.46307e-08
-1.59404e-06
9.25244e-07
2.92388e-06
-1.70308e-06
9.25243e-07
-4.82824e-07
-1.70308e-06
9.00353e-07
-4.82825e-07
2.63827e-07
9.00353e-07
-4.8521e-07
2.63827e-07
-1.54665e-07
-4.8521e-07
2.85698e-07
-1.54665e-07
9.53968e-08
2.85698e-07
-1.77028e-07
9.53967e-08
8.46307e-08
-1.77028e-07
-1.55888e-07
2.92388e-06
-1.70308e-06
-9.79272e-06
5.50335e-06
-1.70308e-06
9.00353e-07
5.50335e-06
-2.90132e-06
9.00354e-07
-4.8521e-07
-2.90132e-06
1.59931e-06
-4.8521e-07
2.85698e-07
1.59931e-06
-9.41463e-07
2.85698e-07
-1.77028e-07
-9.41463e-07
5.84389e-07
-1.77028e-07
-1.55888e-07
5.84389e-07
5.21279e-07
-9.79272e-06
5.50335e-06
2.62959e-06
-1.97716e-06
5.50335e-06
-2.90132e-06
-1.97716e-06
9.26284e-07
-2.90132e-06
1.59931e-06
9.26284e-07
-5.14958e-07
1.59931e-06
-9.41463e-07
-5.14958e-07
3.26899e-07
-9.41463e-07
5.84389e-07
3.26899e-07
-2.32414e-07
5.84389e-07
5.21279e-07
-2.32414e-07
-1.78639e-07
-1.98864e-06
2.62959e-06
2.68907e-06
-4.66351e-06
2.62959e-06
-1.97716e-06
-4.66351e-06
3.20651e-06
-1.97716e-06
9.26284e-07
3.20651e-06
-1.60167e-06
9.26284e-07
-5.14958e-07
-1.60167e-06
8.72693e-07
-5.14958e-07
3.26899e-07
8.72693e-07
-5.09123e-07
3.26899e-07
-2.32414e-07
-5.09123e-07
3.11561e-07
-2.32414e-07
-1.78639e-07
3.11561e-07
2.77311e-07
2.68907e-06
-4.66351e-06
9.49933e-06
1.84479e-05
-4.66351e-06
3.20651e-06
1.84479e-05
-8.45237e-06
3.20651e-06
-1.60167e-06
-8.45237e-06
3.58326e-06
-1.60167e-06
8.72693e-07
3.58326e-06
-2.16087e-06
8.72694e-07
-5.09123e-07
-2.16087e-06
1.2667e-06
-5.09123e-07
3.11561e-07
1.2667e-06
-8.0601e-07
3.11561e-07
2.77311e-07
-8.0601e-07
-6.61755e-07
9.49934e-06
-1.09184e-06
-4.72105e-05
0.000126546
-1.09184e-06
1.84479e-05
0.000126546
2.78824e-05
1.84479e-05
-8.45238e-06
2.78824e-05
1.48385e-05
-8.45237e-06
3.58326e-06
1.48385e-05
-8.11547e-06
3.58326e-06
-2.16087e-06
-8.11547e-06
4.56494e-06
-2.16087e-06
1.2667e-06
4.56494e-06
-2.71958e-06
1.2667e-06
-8.06011e-07
-2.71958e-06
1.71374e-06
-8.0601e-07
-6.61755e-07
1.71374e-06
1.61955e-06
-4.72105e-05
0.000126546
-0.00014409
0.000162671
0.000126546
2.78824e-05
0.000162671
2.59659e-05
2.78824e-05
-1.4891e-05
2.59659e-05
-3.81075e-05
-1.4891e-05
1.48385e-05
-3.81075e-05
5.97596e-06
1.48385e-05
-8.11547e-06
5.97595e-06
-6.8213e-06
-8.11547e-06
4.56494e-06
-6.8213e-06
3.59862e-06
4.56494e-06
-2.71958e-06
3.59862e-06
-2.08045e-06
-2.71958e-06
1.71374e-06
-2.08045e-06
1.25441e-06
1.71374e-06
1.61955e-06
1.25441e-06
7.49992e-07
2.59659e-05
-3.81075e-05
-3.49072e-05
2.75895e-05
-3.81075e-05
5.97596e-06
2.75895e-05
-9.71387e-06
5.97596e-06
-6.8213e-06
-9.71387e-06
4.7688e-06
-6.8213e-06
3.59862e-06
4.7688e-06
-3.80305e-06
3.59862e-06
-2.08045e-06
-3.80305e-06
2.3179e-06
-2.08045e-06
1.25441e-06
2.3179e-06
-1.54075e-06
1.25441e-06
7.49992e-07
-1.54075e-06
-9.41968e-07
-9.71387e-06
4.7688e-06
1.32666e-05
-2.56353e-06
4.7688e-06
-3.80305e-06
-2.56354e-06
2.6992e-06
-3.80305e-06
2.3179e-06
2.6992e-06
-1.77823e-06
2.3179e-06
-1.54074e-06
-1.77823e-06
1.43934e-06
-1.54074e-06
-9.41968e-07
1.43934e-06
8.06998e-07
1.32666e-05
-2.56354e-06
-1.61011e-05
6.41746e-06
-2.56354e-06
2.69919e-06
6.41746e-06
-5.13729e-06
2.69919e-06
-1.77823e-06
-5.13729e-06
3.67126e-06
-1.77823e-06
1.43934e-06
3.67126e-06
-3.03e-06
1.43934e-06
8.06998e-07
-3.03e-06
-2.02236e-06
-1.61011e-05
6.41746e-06
0.000105961
-1.25457e-05
6.41745e-06
-5.13729e-06
-1.25457e-05
1.83194e-05
-5.13729e-06
3.67126e-06
1.83194e-05
-9.23213e-06
3.67126e-06
-3.03e-06
-9.23213e-06
3.9311e-06
-3.03e-06
-2.02236e-06
3.9311e-06
4.00949e-06
-7.34268e-06
-2.76433e-05
-2.6161e-05
4.53591e-05
-2.76433e-05
2.68907e-06
4.53592e-05
9.49933e-06
-0.0001588
-2.28521e-05
5.8933e-05
-4.39578e-05
5.8933e-05
-4.39578e-05
0.000437197
0.000103681
-2.2852e-05
-1.61011e-05
-4.39578e-05
3.2138e-05
-4.39578e-05
3.2138e-05
0.000103681
0.000105961
-0.000427092
0.000169531
0.000199571
-9.36244e-05
0.000169531
-0.0001588
-9.36244e-05
5.89329e-05
-9.36244e-05
5.8933e-05
-0.00055596
0.000437197
0.000199571
-9.36244e-05
0.0012012
-0.00055596
-0.000109703
0.000878591
0.0032739
-0.000315356
0.000878591
-0.000427092
-0.000315356
0.000199571
-0.000315356
0.000199571
-0.00227786
0.0012012
6.23919e-05
-4.96388e-06
1.58473e-05
5.68954e-05
1.58473e-05
5.68954e-05
-0.0001588
-2.28521e-05
-4.96388e-06
1.32666e-05
5.68954e-05
-8.61752e-06
5.68954e-05
-8.61752e-06
-2.28521e-05
-1.61011e-05
-5.30855e-05
2.43331e-05
0.00019454
-8.73026e-05
2.43331e-05
6.23919e-05
-8.73026e-05
1.58473e-05
-8.73026e-05
1.58473e-05
0.000169531
-0.0001588
0.00019454
-8.73026e-05
-0.000427092
0.000169531
-0.000116903
0.000108792
0.00127227
-0.000356749
0.000108792
-5.30854e-05
-0.000356749
0.00019454
-0.000356749
0.00019454
0.000878591
-0.000427092
0.00127227
-0.000356749
-0.000109703
0.000878591
0.00148052
-0.000116903
0.00341297
0.00127227
-2.6161e-05
4.53591e-05
-6.49099e-05
-0.000123107
-6.49099e-05
-0.000123107
0.000127055
6.07918e-05
4.53592e-05
9.49933e-06
-0.000123107
-1.99037e-06
-0.000123107
-1.99037e-06
6.07918e-05
-4.72105e-05
-3.49073e-05
2.75895e-05
6.23919e-05
-4.96389e-06
2.75895e-05
-9.71387e-06
-4.96388e-06
1.32666e-05
1.5491e-05
4.82182e-05
-0.000106303
7.3564e-05
-0.000106303
7.3564e-05
-5.30854e-05
2.43331e-05
4.82182e-05
-3.49072e-05
7.3564e-05
9.20996e-06
7.3564e-05
9.20996e-06
2.43331e-05
6.23919e-05
0.000153505
-0.000191742
-0.000369615
0.000250238
-0.000191742
1.5491e-05
0.000250238
-0.000106303
0.000250238
-0.000106303
0.000108792
-5.30854e-05
-0.000369615
0.000250238
-0.000116903
0.000108792
0.00107932
-0.000326647
0.000121081
0.000962128
-0.000326647
0.000153505
0.000962128
-0.000369615
0.000962128
-0.000369615
0.00148052
-0.000116903
-0.000330373
0.000127055
0.00103531
-0.000533998
0.00103531
-0.000533998
0.00198594
-0.00109155
-0.00262986
0.00103531
-0.00482934
0.00198594
0.000127055
6.07918e-05
-0.000533998
0.000117076
-0.000533998
0.000117076
-0.00109155
1.42094e-06
6.07918e-05
-4.72105e-05
0.000117076
-0.000126627
0.000117076
-0.000126627
1.42093e-06
-0.00014409
-0.00014409
0.000162671
1.5491e-05
4.82182e-05
0.000162671
2.59659e-05
4.82182e-05
-3.49072e-05
-0.00109155
1.42088e-06
-0.000788966
-0.00038274
-0.000788966
-0.00038274
0.000153505
-0.000191742
1.42093e-06
-0.00014409
-0.00038274
-3.83718e-05
-0.00038274
-3.83718e-05
-0.000191742
1.5491e-05
-0.00482934
0.00198594
-0.00261717
0.00111336
0.00198594
-0.00109155
0.00111336
-0.000788966
0.00111336
-0.000788966
-0.000326647
0.000153505
-0.00261717
0.00111336
0.00107932
-0.000326647
0.0165182
-0.00482934
0.0107115
-0.00261717
4.57807e-05
4.28129e-05
4.68395e-05
3.81558e-05
4.28129e-05
2.06688e-05
3.81558e-05
2.10689e-05
2.06688e-05
3.04958e-06
2.10689e-05
6.24661e-06
3.04958e-06
3.98383e-05
6.24661e-06
3.81492e-05
3.98383e-05
3.39932e-05
3.81492e-05
3.39939e-05
3.39932e-05
-1.38504e-05
3.39939e-05
-1.3751e-05
-1.38504e-05
6.28509e-06
-1.3751e-05
6.27071e-06
6.28509e-06
-2.33071e-06
6.27071e-06
-2.35583e-06
-2.33071e-06
8.6448e-07
-2.35583e-06
8.88283e-07
8.6448e-07
-5.68973e-07
8.88283e-07
-5.65411e-07
4.68395e-05
3.81558e-05
-8.10798e-05
-7.88682e-05
3.81558e-05
2.10689e-05
-7.88682e-05