# vtk DataFile Version 2.0
Hex test
ASCII
DATASET UNSTRUCTURED_GRID
POINTS 10380 float
34 -18 0
34 -14.1667 0
36 -18 0
36 -14.1667 0
34 -14.1667 0
34 -12 0
36 -14.1667 0
36 -12 0
34 -12 0
34 -10 0
36 -12 0
36 -10 0
34 -10 0
34 -8 0
36 -10 0
36 -8 0
34 -8 0
34 -6 0
36 -8 0
36 -6 0
34 -6 0
34 -4 0
36 -6 0
36 -4 0
34 -4 0
34 -2 0
36 -4 0
36 -2 0
36 -18 0
36 -14.1667 0
38 -18 0
38 -14.1667 0
36 -14.1667 0
36 -12 0
38 -14.1667 0
38 -12 0
36 -12 0
36 -10 0
38 -12 0
38 -10 0
36 -10 0
36 -8 0
38 -10 0
38 -8 0
36 -8 0
36 -6 0
38 -8 0
38 -6 0
36 -6 0
36 -4 0
38 -6 0
38 -4 0
36 -4 0
36 -2 0
38 -4 0
38 -2 0
38 -18 0
38 -14.1667 0
40 -18 0
40 -14.1667 0
38 -14.1667 0
38 -12 0
40 -14.1667 0
40 -12 0
38 -12 0
38 -10 0
40 -12 0
40 -10 0
38 -10 0
38 -8 0
40 -10 0
40 -8 0
38 -8 0
38 -6 0
40 -8 0
40 -6 0
38 -6 0
38 -4 0
40 -6 0
40 -4 0
38 -4 0
38 -2 0
40 -4 0
40 -2 0
38 -2 0
38 -1 0
40 -2 0
40 -1 0
38 -1 0
38 6.93889e-18 0
40 -1 0
40 0 0
40 -18 0
40 -14.1667 0
42 -18 0
42 -14.1667 0
40 -14.1667 0
40 -12 0
42 -14.1667 0
42 -12 0
40 -12 0
40 -10 0
42 -12 0
42 -10 0
40 -10 0
40 -8 0
42 -10 0
42 -8 0
40 -8 0
40 -6 0
42 -8 0
42 -6 0
40 -6 0
40 -4 0
42 -6 0
42 -4 0
40 -4 0
40 -2 0
42 -4 0
42 -2 0
40 -2 0
40 -1 0
42 -2 0
42 -1 0
40 -1 0
40 1.38778e-17 0
42 -1 0
42 2.77556e-17 0
40 2.77556e-17 0
40 1 0
42 0 0
42 1 0
40 1 0
40 2 0
42 1 0
42 2 0
40 2 0
40 3 0
42 2 0
42 3 0
40 3 0
40 4 0
42 3 0
42 4 0
42 -18 0
42 -14.1667 0
44 -18 0
44 -14.1667 0
42 -14.1667 0
42 -12 0
44 -14.1667 0
44 -12 0
42 -12 0
42 -10 0
44 -12 0
44 -10 0
42 -10 0
42 -8 0
44 -10 0
44 -8 0
42 -8 0
42 -6 0
44 -8 0
44 -6 0
42 -6 0
42 -4 0
44 -6 0
44 -4 0
42 -4 0
42 -2 0
44 -4 0
44 -2 0
42 -2 0
42 -2.77556e-17 0
44 -2 0
44 -2.77556e-17 0
42 5.55112e-17 0
42 1 0
44 2.77556e-17 0
44 1 0
42 1 0
42 2 0
44 1 0
44 2 0
42 2 0
42 3 0
44 2 0
44 3 0
42 3 0
42 4 0
44 3 0
44 4 0
44 -18 0
44 -14.1667 0
46 -18 0
46 -14.1667 0
44 -14.1667 0
44 -12 0
46 -14.1667 0
46 -12 0
44 -12 0
44 -10 0
46 -12 0
46 -10 0
44 -10 0
44 -8 0
46 -10 0
46 -8 0
44 -8 0
44 -6 0
46 -8 0
46 -6 0
44 -6 0
44 -4 0
46 -6 0
46 -4 0
44 -4 0
44 -2 0
46 -4 0
46 -2 0
44 -2 0
44 -2.77556e-17 0
46 -2 0
46 -2.77556e-17 0
44 2.77556e-17 0
44 2 0
46 2.77556e-17 0
46 2 0
46 -18 0
46 -14.1667 0
48 -18 0
48 -14.1667 0
46 -14.1667 0
46 -12 0
48 -14.1667 0
48 -12 0
46 -12 0
46 -10 0
48 -12 0
48 -10 0
46 -10 0
46 -8 0
48 -10 0
48 -8 0
46 -8 0
46 -6 0
48 -8 0
48 -6 0
46 -6 0
46 -4 0
48 -6 0
48 -4 0
46 -4 0
46 -2 0
48 -4 0
48 -2 0
46 -2 0
46 -2.77556e-17 0
48 -2 0
48 -2.77556e-17 0
46 2.77556e-17 0
46 2 0
48 2.77556e-17 0
48 2 0
48 -18 0
48 -14.1667 0
50 -18 0
50 -14.1667 0
48 -14.1667 0
48 -12 0
50 -14.1667 0
50 -12 0
48 -12 0
48 -10 0
50 -12 0
50 -10 0
48 -10 0
48 -8 0
50 -10 0
50 -8 0
48 -8 0
48 -6 0
50 -8 0
50 -6 0
48 -6 0
48 -4 0
50 -6 0
50 -4 0
48 -4 0
48 -2 0
50 -4 0
50 -2 0
48 -2 0
48 -2.77556e-17 0
50 -2 0
50 -2.77556e-17 0
50 -18 0
50 -14.1667 0
52 -18 0
52 -14.1667 0
50 -14.1667 0
50 -12 0
52 -14.1667 0
52 -12 0
50 -12 0
50 -10 0
52 -12 0
52 -10 0
50 -10 0
50 -8 0
52 -10 0
52 -8 0
50 -8 0
50 -6 0
52 -8 0
52 -6 0
50 -6 0
50 -4 0
52 -6 0
52 -4 0
50 -4 0
50 -2 0
52 -4 0
52 -2 0
50 -2 0
50 -2.77556e-17 0
52 -2 0
52 -2.77556e-17 0
52 -18 0
52 -14.1667 0
54 -18 0
54 -14.1667 0
52 -14.1667 0
52 -12 0
54 -14.1667 0
54 -12 0
52 -12 0
52 -10 0
54 -12 0
54 -10 0
52 -10 0
52 -8 0
54 -10 0
54 -8 0
52 -8 0
52 -6 0
54 -8 0
54 -6 0
52 -6 0
52 -4 0
54 -6 0
54 -4 0
52 -4 0
52 -2 0
54 -4 0
54 -2 0
52 -2 0
52 -2.77556e-17 0
54 -2 0
54 -2.77556e-17 0
54 -18 0
54 -14.1667 0
56.1667 -18 0
56.1667 -14.1667 0
54 -14.1667 0
54 -12 0
56.1667 -14.1667 0
56.1667 -12 0
54 -12 0
54 -10 0
56.1667 -12 0
56.1667 -10 0
54 -10 0
54 -8 0
56.1667 -10 0
56.1667 -8 0
54 -8 0
54 -6 0
56.1667 -8 0
56.1667 -6 0
54 -6 0
54 -4 0
56.1667 -6 0
56.1667 -4 0
54 -4 0
54 -2 0
56.1667 -4 0
56.1667 -2 0
54 -2 0
54 -2.77556e-17 0
56.1667 -2 0
56.1667 0 0
56.1667 -18 0
56.1667 -14.1667 0
60 -18 0
60 -14.1667 0
56.1667 -14.1667 0
56.1667 -12 0
60 -14.1667 0
60 -12 0
56.1667 -12 0
56.1667 -10 0
60 -12 0
60 -10 0
56.1667 -10 0
56.1667 -8 0
60 -10 0
60 -8 0
56.1667 -8 0
56.1667 -6 0
60 -8 0
60 -6 0
56.1667 -6 0
56.1667 -4 0
60 -6 0
60 -4 0
56.1667 -4 0
56.1667 -2 0
60 -4 0
60 -2 0
56.1667 -2 0
56.1667 6.93889e-17 0
60 -2 0
60 0 0
38 4 0
38 5 0
40 4 0
40 5 0
38 2 0
38 3 0
40 2 0
40 3 0
38 3 0
38 4 0
40 3 0
40 4 0
38 0 0
38 1 0
40 4.16334e-17 0
40 1 0
38 1 0
38 2 0
40 1 0
40 2 0
36 4 0
36 5 0
37 4 0
37 5 0
36 5 0
36 6 0
37 5 0
37 6 0
37 4 0
37 5 0
38 4 0
38 5 0
36 2 0
36 3 0
37 2 0
37 3 0
36 3 0
36 4 0
37 3 0
37 4 0
37 3 0
37 4 0
38 3 0
38 4 0
37 2 0
37 3 0
38 2 0
38 3 0
36 0 0
36 1 0
37 -1.47451e-17 0
37 1 0
37 -1.47451e-17 0
37 1 0
38 -6.93889e-18 0
38 1 0
36 1 0
36 2 0
37 1 0
37 2 0
37 1 0
37 2 0
38 1 0
38 2 0
36 -2 0
36 -1 0
38 -2 0
38 -1 0
36 -1 0
36 -2.77556e-17 0
38 -1 0
38 -2.08167e-17 0
34 4 0
34 5 0
35 4 0
35 5 0
34 5 0
34 6 0
35 5 0
35 6 0
35 5 0
35 6 0
36 5 0
36 6 0
35 4 0
35 5 0
36 4 0
36 5 0
34 2 0
34 3 0
35 2 0
35 3 0
34 3 0
34 4 0
35 3 0
35 4 0
35 3 0
35 4 0
36 3 0
36 4 0
35 2 0
35 3 0
36 2 0
36 3 0
34 1.38778e-17 0
34 1 0
35 -8.67362e-18 0
35 1 0
34 1 0
34 2 0
35 1 0
35 2 0
35 1 0
35 2 0
36 1 0
36 2 0
35 -2.42861e-17 0
35 1 0
36 -3.46945e-18 0
36 1 0
34 -2 0
34 -1 0
35 -2 0
35 -1 0
35 -2 0
35 -1 0
36 -2 0
36 -1 0
34 -1 0
34 -2.77556e-17 0
35 -1 0
35 1.9082e-17 0
35 -1 0
35 1.9082e-17 0
36 -1 0
36 -1.73472e-17 0
32 4 0
32 5 0
33 4 0
33 5 0
33 4 0
33 5 0
34 4 0
34 5 0
32 2 0
32 3 0
33 2 0
33 3 0
32 3 0
32 4 0
33 3 0
33 4 0
33 3 0
33 4 0
34 3 0
34 4 0
33 2 0
33 3 0
34 2 0
34 3 0
32 1.38778e-17 0
32 1 0
33 1.56125e-17 0
33 1 0
32 1 0
32 2 0
33 1 0
33 2 0
33 1 0
33 2 0
34 1 0
34 2 0
33 3.1225e-17 0
33 1 0
34 1.38778e-17 0
34 1 0
32 -2 0
32 -1 0
33 -2 0
33 -1 0
33 -2 0
33 -1 0
34 -2 0
34 -1 0
32 -1 0
32 -2.77556e-17 0
33 -1 0
33 2.94903e-17 0
33 -1 0
33 2.94903e-17 0
34 -1 0
34 -1.38778e-17 0
31 3 0
31 4 0
32 3 0
32 4 0
31 2 0
31 3 0
32 2 0
32 3 0
31 1 0
31 2 0
32 1 0
32 2 0
8 -18 0
8 -14.1667 0
10 -18 0
10 -14.1667 0
8 -14.1667 0
8 -12 0
10 -14.1667 0
10 -12 0
10 -18 0
10 -14.1667 0
12 -18 0
12 -14.1667 0
10 -14.1667 0
10 -12 0
12 -14.1667 0
12 -12 0
10 -12 0
10 -10 0
12 -12 0
12 -10 0
10 -10 0
10 -8 0
12 -10 0
12 -8 0
12 -18 0
12 -14.1667 0
14 -18 0
14 -14.1667 0
12 -14.1667 0
12 -12 0
14 -14.1667 0
14 -12 0
12 -12 0
12 -10 0
14 -12 0
14 -10 0
12 -10 0
12 -8 0
14 -10 0
14 -8 0
12 -8 0
12 -6 0
14 -8 0
14 -6 0
12 -6 0
12 -4 0
14 -6 0
14 -4 0
14 -18 0
14 -14.1667 0
16 -18 0
16 -14.1667 0
14 -14.1667 0
14 -12 0
16 -14.1667 0
16 -12 0
14 -12 0
14 -10 0
16 -12 0
16 -10 0
14 -10 0
14 -8 0
16 -10 0
16 -8 0
14 -8 0
14 -6 0
16 -8 0
16 -6 0
14 -6 0
14 -4 0
16 -6 0
16 -4 0
14 -4 0
14 -2 0
16 -4 0
16 -2 0
14 -2 0
14 5.55112e-17 0
16 -2 0
16 3.46945e-17 0
16 -18 0
16 -14.1667 0
18 -18 0
18 -14.1667 0
16 -14.1667 0
16 -12 0
18 -14.1667 0
18 -12 0
16 -12 0
16 -10 0
18 -12 0
18 -10 0
16 -10 0
16 -8 0
18 -10 0
18 -8 0
16 -8 0
16 -6 0
18 -8 0
18 -6 0
16 -6 0
16 -4 0
18 -6 0
18 -4 0
16 -4 0
16 -2 0
18 -4 0
18 -2 0
16 -2 0
16 5.55112e-17 0
18 -2 0
18 3.46945e-17 0
18 -18 0
18 -14.1667 0
20 -18 0
20 -14.1667 0
18 -14.1667 0
18 -12 0
20 -14.1667 0
20 -12 0
18 -12 0
18 -10 0
20 -12 0
20 -10 0
18 -10 0
18 -8 0
20 -10 0
20 -8 0
18 -8 0
18 -6 0
20 -8 0
20 -6 0
18 -6 0
18 -4 0
20 -6 0
20 -4 0
18 -4 0
18 -2 0
20 -4 0
20 -2 0
18 -2 0
18 5.55112e-17 0
20 -2 0
20 3.46945e-17 0
20 -18 0
20 -14.1667 0
22 -18 0
22 -14.1667 0
20 -14.1667 0
20 -12 0
22 -14.1667 0
22 -12 0
20 -12 0
20 -10 0
22 -12 0
22 -10 0
20 -10 0
20 -8 0
22 -10 0
22 -8 0
20 -8 0
20 -6 0
22 -8 0
22 -6 0
20 -6 0
20 -4 0
22 -6 0
22 -4 0
20 -4 0
20 -2 0
22 -4 0
22 -2 0
20 -2 0
20 -1 0
22 -2 0
22 -1 0
20 -1 0
20 6.245e-17 0
22 -1 0
22 5.55112e-17 0
20 2.77556e-17 0
20 1 0
22 2.77556e-17 0
22 1 0
20 1 0
20 2 0
22 1 0
22 2 0
22 -18 0
22 -14.1667 0
24 -18 0
24 -14.1667 0
22 -14.1667 0
22 -12 0
24 -14.1667 0
24 -12 0
22 -12 0
22 -10 0
24 -12 0
24 -10 0
22 -10 0
22 -8 0
24 -10 0
24 -8 0
22 -8 0
22 -6 0
24 -8 0
24 -6 0
22 -6 0
22 -4 0
24 -6 0
24 -4 0
22 -4 0
22 -2 0
24 -4 0
24 -2 0
22 -2 0
22 -1 0
24 -2 0
24 -1 0
22 -1 0
22 4.16334e-17 0
24 -1 0
24 -6.93889e-18 0
22 1.38778e-17 0
22 1 0
24 -6.93889e-18 0
24 1 0
22 1 0
22 2 0
24 1 0
24 2 0
24 -18 0
24 -14.1667 0
26 -18 0
26 -14.1667 0
24 -14.1667 0
24 -12 0
26 -14.1667 0
26 -12 0
24 -12 0
24 -10 0
26 -12 0
26 -10 0
24 -10 0
24 -8 0
26 -10 0
26 -8 0
24 -8 0
24 -6 0
26 -8 0
26 -6 0
24 -6 0
24 -4 0
26 -6 0
26 -4 0
24 -4 0
24 -2 0
26 -4 0
26 -2 0
26 -18 0
26 -14.1667 0
28 -18 0
28 -14.1667 0
26 -14.1667 0
26 -12 0
28 -14.1667 0
28 -12 0
26 -12 0
26 -10 0
28 -12 0
28 -10 0
26 -10 0
26 -8 0
28 -10 0
28 -8 0
26 -8 0
26 -6 0
28 -8 0
28 -6 0
26 -6 0
26 -4 0
28 -6 0
28 -4 0
26 -4 0
26 -2 0
28 -4 0
28 -2 0
28 -18 0
28 -14.1667 0
30 -18 0
30 -14.1667 0
28 -14.1667 0
28 -12 0
30 -14.1667 0
30 -12 0
28 -12 0
28 -10 0
30 -12 0
30 -10 0
28 -10 0
28 -8 0
30 -10 0
30 -8 0
28 -8 0
28 -6 0
30 -8 0
30 -6 0
28 -6 0
28 -4 0
30 -6 0
30 -4 0
28 -4 0
28 -2 0
30 -4 0
30 -2 0
30 -18 0
30 -14.1667 0
32 -18 0
32 -14.1667 0
30 -14.1667 0
30 -12 0
32 -14.1667 0
32 -12 0
30 -12 0
30 -10 0
32 -12 0
32 -10 0
30 -10 0
30 -8 0
32 -10 0
32 -8 0
30 -8 0
30 -6 0
32 -8 0
32 -6 0
30 -6 0
30 -4 0
32 -6 0
32 -4 0
30 -4 0
30 -2 0
32 -4 0
32 -2 0
32 -18 0
32 -14.1667 0
34 -18 0
34 -14.1667 0
32 -14.1667 0
32 -12 0
34 -14.1667 0
34 -12 0
32 -12 0
32 -10 0
34 -12 0
34 -10 0
32 -10 0
32 -8 0
34 -10 0
34 -8 0
32 -8 0
32 -6 0
34 -8 0
34 -6 0
32 -6 0
32 -4 0
34 -6 0
34 -4 0
32 -4 0
32 -2 0
34 -4 0
34 -2 0
30 2 0
30 3 0
31 2 0
31 3 0
30 3 0
30 4 0
31 3 0
31 4 0
30 1.38778e-17 0
30 1 0
31 1.56125e-17 0
31 1 0
30 1 0
30 2 0
31 1 0
31 2 0
31 3.1225e-17 0
31 1 0
32 1.38778e-17 0
32 1 0
30 -2 0
30 -1 0
31 -2 0
31 -1 0
31 -2 0
31 -1 0
32 -2 0
32 -1 0
30 -1 0
30 -2.77556e-17 0
31 -1 0
31 2.94903e-17 0
31 -1 0
31 2.94903e-17 0
32 -1 0
32 -1.38778e-17 0
28 4 0
28 5 0
29 4 0
29 5 0
28 5 0
28 6 0
29 5 0
29 6 0
29 4 0
29 5 0
30 4 0
30 5 0
28 2 0
28 3 0
29 2 0
29 3 0
28 3 0
28 4 0
29 3 0
29 4 0
29 3 0
29 4 0
30 3 0
30 4 0
29 2 0
29 3 0
30 2 0
30 3 0
[...]
POINT_DATA 10380
SCALARS phi float 1
LOOKUP_TABLE default
-2.60574e-06
-2.63938e-06
5.80793e-07
5.65097e-07
-2.63938e-06
3.8798e-06
5.65097e-07
-8.43998e-07
3.8798e-06
-6.36575e-06
-8.43998e-07
1.39111e-06
-6.36574e-06
1.12696e-05
1.39111e-06
-2.50317e-06
1.12696e-05
-2.08079e-05
-2.50317e-06
4.57409e-06
-2.08079e-05
3.47094e-05
4.57409e-06
-7.71142e-06
3.47094e-05
1.27671e-05
-7.71142e-06
-3.56834e-06
5.80793e-07
5.65097e-07
-4.35318e-07
-5.5352e-07
5.65097e-07
-8.43997e-07
-5.5352e-07
5.38413e-07
-8.43998e-07
1.39111e-06
5.38413e-07
-7.26409e-07
1.39111e-06
-2.50317e-06
-7.26409e-07
1.14434e-06
-2.50317e-06
4.57409e-06
1.14434e-06
-3.0384e-06
4.57409e-06
-7.71143e-06
-3.0384e-06
3.4842e-06
-7.71142e-06
-3.56835e-06
3.4842e-06
7.3268e-06
-4.35318e-07
-5.5352e-07
-3.55668e-07
-3.77387e-07
-5.5352e-07
5.38413e-07
-3.77387e-07
5.56689e-07
5.38413e-07
-7.26409e-07
5.56689e-07
-9.06899e-07
-7.26409e-07
1.14434e-06
-9.06899e-07
1.58536e-06
1.14434e-06
-3.0384e-06
1.58536e-06
-3.03096e-06
-3.0384e-06
3.4842e-06
-3.03096e-06
4.88773e-06
3.4842e-06
7.32679e-06
4.88773e-06
-4.09168e-06
7.3268e-06
6.08174e-05
-4.09168e-06
1.95736e-05
6.08174e-05
9.60829e-06
1.95736e-05
-3.03094e-05
-3.55668e-07
-3.77387e-07
-2.88947e-07
-2.31344e-07
-3.77387e-07
5.56689e-07
-2.31344e-07
4.98458e-07
5.56689e-07
-9.06899e-07
4.98458e-07
-9.15442e-07
-9.06899e-07
1.58536e-06
-9.15442e-07
1.73319e-06
1.58536e-06
-3.03096e-06
1.73319e-06
-2.85515e-06
-3.03096e-06
4.88773e-06
-2.85515e-06
5.22135e-06
4.88773e-06
-4.09168e-06
5.22135e-06
-8.99099e-06
-4.09168e-06
1.95736e-05
-8.99099e-06
1.65211e-05
1.95736e-05
-3.03094e-05
1.65211e-05
2.2421e-05
-3.03094e-05
-7.0519e-06
2.2421e-05
-1.94195e-05
-7.0519e-06
-5.14582e-06
-1.94195e-05
-6.18391e-06
-5.14582e-06
8.06256e-05
-6.18391e-06
6.26686e-05
8.06256e-05
4.46358e-05
6.26686e-05
-8.57908e-05
-2.88947e-07
-2.31344e-07
5.88514e-08
6.08507e-08
-2.31344e-07
4.98458e-07
6.08507e-08
-8.52944e-08
4.98458e-07
-9.15442e-07
-8.52945e-08
1.36667e-07
-9.15442e-07
1.73319e-06
1.36667e-07
-2.42131e-07
1.73319e-06
-2.85515e-06
-2.42131e-07
4.82255e-07
-2.85515e-06
5.22135e-06
4.82255e-07
-8.89207e-07
5.22135e-06
-8.99099e-06
-8.89207e-07
1.38499e-06
-8.99099e-06
2.2421e-05
1.38499e-06
-6.92074e-06
2.2421e-05
-1.94195e-05
-6.92074e-06
-1.87906e-06
-1.94195e-05
-6.18391e-06
-1.87906e-06
1.87934e-06
-6.18391e-06
6.26686e-05
1.87934e-06
2.70551e-06
6.26686e-05
-8.57908e-05
2.70551e-06
4.57142e-05
5.88514e-08
6.08507e-08
-9.49027e-09
-5.91101e-09
6.08507e-08
-8.52945e-08
-5.91102e-09
1.54208e-08
-8.52945e-08
1.36667e-07
1.54208e-08
-3.05949e-08
1.36667e-07
-2.42131e-07
-3.05949e-08
6.14979e-08
-2.42132e-07
4.82255e-07
6.14978e-08
-9.95576e-08
4.82255e-07
-8.89207e-07
-9.95576e-08
1.81541e-07
-8.89207e-07
1.38499e-06
1.81541e-07
-2.0447e-07
1.38499e-06
-6.92074e-06
-2.0447e-07
2.64314e-06
-6.92074e-06
1.87934e-06
2.64314e-06
1.85991e-06
-9.49027e-09
-5.91102e-09
-4.02414e-08
-4.06784e-08
-5.91103e-09
1.54208e-08
-4.06784e-08
6.188e-08
1.54208e-08
-3.05949e-08
6.188e-08
-1.00128e-07
-3.05949e-08
6.14978e-08
-1.00128e-07
1.76179e-07
6.14979e-08
-9.95577e-08
1.76179e-07
-3.28367e-07
-9.95576e-08
1.81541e-07
-3.28368e-07
6.05616e-07
1.81541e-07
-2.0447e-07
6.05616e-07
-1.18178e-06
-2.0447e-07
2.64314e-06
-1.18178e-06
9.34867e-07
2.64314e-06
1.85991e-06
9.34868e-07
-4.33541e-06
-4.02414e-08
-4.06784e-08
2.77883e-08
2.82719e-08
-4.06784e-08
6.188e-08
2.82719e-08
-4.37908e-08
6.188e-08
-1.00128e-07
-4.37908e-08
7.31251e-08
-1.00128e-07
1.76179e-07
7.31251e-08
-1.31877e-07
1.76179e-07
-3.28368e-07
-1.31877e-07
2.48696e-07
-3.28367e-07
6.05615e-07
2.48696e-07
-4.66131e-07
6.05615e-07
-1.18178e-06
-4.66131e-07
9.03627e-07
-1.18178e-06
9.34868e-07
9.03627e-07
-1.03614e-06
2.77883e-08
2.82719e-08
-9.32221e-09
-9.41143e-09
2.82719e-08
-4.37908e-08
-9.41143e-09
1.42737e-08
-4.37908e-08
7.31251e-08
1.42737e-08
-2.3503e-08
7.31251e-08
-1.31877e-07
-2.3503e-08
4.18244e-08
-1.31877e-07
2.48696e-07
4.18244e-08
-7.94674e-08
2.48697e-07
-4.66132e-07
-7.94674e-08
1.48988e-07
-4.66131e-07
9.03627e-07
1.48988e-07
-2.97632e-07
9.03627e-07
-1.03614e-06
-2.97632e-07
1.93868e-07
-9.32221e-09
-9.41143e-09
5.66652e-09
5.73821e-09
-9.41143e-09
1.42737e-08
5.73821e-09
-8.72171e-09
1.42737e-08
-2.3503e-08
-8.72171e-09
1.43939e-08
-2.3503e-08
4.18244e-08
1.43939e-08
-2.55149e-08
4.18244e-08
-7.94674e-08
-2.55149e-08
4.8703e-08
-7.94674e-08
1.48988e-07
4.8703e-08
-9.13734e-08
1.48988e-07
-2.97632e-07
-9.13734e-08
1.82121e-07
-2.97632e-07
1.93868e-07
1.82121e-07
-1.26921e-07
5.66652e-09
5.73821e-09
-3.52254e-09
-3.58199e-09
5.73821e-09
-8.72171e-09
-3.58199e-09
5.40258e-09
-8.72171e-09
1.43939e-08
5.40258e-09
-8.92533e-09
1.43939e-08
-2.55149e-08
-8.92533e-09
1.55402e-08
-2.55149e-08
4.8703e-08
1.55403e-08
-3.0353e-08
4.8703e-08
-9.13734e-08
-3.0353e-08
5.71756e-08
-9.13734e-08
1.82121e-07
5.71756e-08
-1.14427e-07
1.82121e-07
-1.26921e-07
-1.14427e-07
8.04262e-08
-3.52254e-09
-3.58199e-09
-3.53741e-09
-3.51593e-09
-3.58199e-09
5.40258e-09
-3.51593e-09
5.39613e-09
5.40258e-09
-8.92533e-09
5.39613e-09
-8.98551e-09
-8.92533e-09
1.55402e-08
-8.98551e-09
1.60078e-08
1.55403e-08
-3.0353e-08
1.60078e-08
-3.0537e-08
-3.0353e-08
5.71756e-08
-3.0537e-08
5.74556e-08
5.71756e-08
-1.14427e-07
5.74556e-08
-1.14404e-07
-1.14427e-07
8.04262e-08
-1.14404e-07
8.55422e-08
9.66461e-05
0.000252453
4.46358e-05
-0.000231434
-2.70944e-05
0.000118459
-5.14582e-06
8.06256e-05
0.000118459
9.66461e-05
8.06256e-05
4.46358e-05
9.60828e-06
7.27404e-05
-3.03094e-05
-7.0519e-06
7.27404e-05
-2.70944e-05
-7.0519e-06
-5.14582e-06
-0.000899229
-0.00687315
0.000537855
0.00269739
-0.00687315
-0.00800928
0.00269739
0.0053828
0.000537855
0.00269739
9.6646e-05
0.000252453
0.000142733
-0.000503328
3.86711e-05
7.19619e-05
-0.000503328
-0.000899229
7.19619e-05
0.000537855
7.19619e-05
0.000537855
0.000118459
9.66461e-05
3.86711e-05
7.19619e-05
-2.70944e-05
0.000118459
3.44364e-05
6.90819e-05
8.50837e-05
-0.000204832
8.50837e-05
-0.000204832
9.60828e-06
7.27404e-05
6.90818e-05
0.000142733
-0.000204832
3.86711e-05
-0.000204832
3.86711e-05
7.27404e-05
-2.70944e-05
-3.56834e-06
-6.34089e-05
7.3268e-06
6.08174e-05
-6.34089e-05
3.44364e-05
6.08174e-05
9.60828e-06
0.00219446
0.0208196
0.00183007
0.0143545
0.0208196
0.0738213
0.0143545
0.0201829
0.0143545
0.0201829
-0.00687315
-0.00800928
0.00183007
0.0143545
-0.000899228
-0.00687315
0.000630848
-0.00130007
-0.000483255
0.00114194
-0.00130007
0.00219446
0.00114194
0.00183007
0.00114194
0.00183007
-0.000503328
-0.000899228
-0.000483255
0.00114194
0.000142733
-0.000503328
-5.58689e-06
-0.000101576
-7.71904e-05
6.90265e-05
-0.000101576
0.000630848
6.90266e-05
-0.000483255
6.90266e-05
-0.000483255
6.90818e-05
0.000142733
-7.71904e-05
6.90265e-05
3.44364e-05
6.90819e-05
1.27671e-05
0.000341434
2.45387e-06
5.11588e-05
2.45387e-06
5.11588e-05
-3.56834e-06
-6.34089e-05
0.000341434
-5.58684e-06
5.11588e-05
-7.71904e-05
5.11588e-05
-7.71904e-05
-6.34089e-05
3.44364e-05
0.14308
0.512145
0.04762
0.376589
0.04762
0.376589
0.00219446
0.0208196
0.000860379
0.0180521
-0.00487601
0.0137827
0.0180521
0.14308
0.0137827
0.04762
0.0137827
0.04762
-0.00130007
0.00219447
-0.00487601
0.0137827
0.000630848
-0.00130007
-0.000368152
0.000552483
-0.0011299
0.00307504
0.000552482
0.000860379
0.00307504
-0.00487601
0.00307504
-0.00487601
-0.000101576
0.000630848
-0.0011299
0.00307504
-5.58686e-06
-0.000101576
-2.95487e-05
-0.000693319
1.24625e-05
-0.000409461
1.24625e-05
-0.000409461
1.27671e-05
0.000341434
-0.000693319
-0.000368152
-0.000409461
-0.0011299
-0.000409461
-0.0011299
0.000341434
-5.58695e-06
0.0607807
0.403346
0.0180521
0.14308
0.015811
0.0607807
0.000860379
0.0180521
-0.00605921
0.015811
0.000552482
0.000860379
6.15109e-07
1.47311e-06
-4.12982e-06
3.00588e-06
1.47311e-06
-2.27106e-07
3.00588e-06
1.39326e-05
-4.12982e-06
3.00588e-06
-2.47356e-06
-9.15431e-07
3.00588e-06
1.39326e-05
-9.15432e-07
5.4558e-06
1.39326e-05
-3.51939e-05
5.4558e-06
-1.16609e-05
-3.51939e-05
7.37652e-05
-1.16609e-05
2.3431e-05
-2.47356e-06
-9.15432e-07
1.15805e-07
1.20181e-07
-9.15432e-07
5.4558e-06
1.20181e-07
-1.77217e-07
5.4558e-06
-1.16609e-05
-1.77217e-07
3.07519e-07
-1.16609e-05
2.3431e-05
3.07519e-07
-5.19691e-07
2.3431e-05
-3.33459e-05
-5.19691e-07
9.05043e-07
-3.33459e-05
6.04488e-05
9.05044e-07
-1.45854e-06
1.15805e-07
1.20181e-07
4.0715e-07
4.37632e-07
1.20181e-07
-1.77217e-07
4.37632e-07
-5.70319e-07
-1.77217e-07
3.07519e-07
-5.70319e-07
8.84141e-07
3.07519e-07
-5.19691e-07
8.84141e-07
-1.42884e-06
-5.19691e-07
9.05043e-07
-1.42884e-06
3.22022e-06
9.05044e-07
-1.45854e-06
3.22022e-06
-5.9095e-06
-1.45854e-06
-4.22149e-08
-5.9095e-06
1.41837e-05
-4.22151e-08
4.74621e-06
1.41837e-05
-1.59712e-05
4.0715e-07
4.37632e-07
-1.89288e-06
-2.35757e-06
4.37632e-07
-5.70319e-07
-2.35757e-06
2.382e-06
-5.70319e-07
8.84141e-07
2.382e-06
-3.13893e-06
8.84141e-07
-1.42884e-06
-3.13893e-06
5.26329e-06
-1.42884e-06
3.22022e-06
5.26328e-06
-1.21879e-05
3.22022e-06
-5.9095e-06
-1.21879e-05
2.11205e-05
-5.9095e-06
1.41837e-05
2.11205e-05
-4.82286e-05
1.41837e-05
-1.59712e-05
-4.82286e-05
3.17401e-05
-1.89288e-06
-2.35757e-06
4.67483e-07
1.30924e-08
-2.35757e-06
2.382e-06
1.30924e-08
-1.15311e-06
2.382e-06
-3.13893e-06
-1.15311e-06
2.69127e-06
-3.13893e-06
5.26329e-06
2.69126e-06
-5.60596e-06
5.26328e-06
-1.21879e-05
-5.60596e-06
7.87707e-06
-1.21879e-05
2.11205e-05
7.87707e-06
-1.6127e-05
2.11205e-05
-4.82286e-05
-1.6127e-05
9.53013e-06
-4.82286e-05
3.17401e-05
9.53013e-06
3.46659e-05
4.67483e-07
1.30923e-08
-2.31003e-06
-2.03672e-06
1.30921e-08
-1.15311e-06
-2.03672e-06
3.87008e-06
-1.15311e-06
2.69127e-06
3.87008e-06
-6.92206e-06
2.69127e-06
-5.60596e-06
-6.92206e-06
1.29921e-05
-5.60596e-06
7.87707e-06
1.29921e-05
-2.27156e-05
7.87707e-06
-1.6127e-05
-2.27156e-05
4.27769e-05
-1.6127e-05
9.53013e-06
4.27769e-05
-8.61811e-05
9.53013e-06
-5.93705e-05
-8.61811e-05
6.87557e-05
-5.93705e-05
3.46659e-05
6.87557e-05
4.8418e-05
3.46659e-05
0.000534548
4.8418e-05
-6.55195e-05
0.000534548
0.000610579
-6.55195e-05
0.000164078
-2.31003e-06
-2.03672e-06
1.22992e-07
6.14251e-08
-2.03672e-06
3.87008e-06
6.14251e-08
-3.03096e-07
3.87008e-06
-6.92206e-06
-3.03096e-07
6.44227e-07
-6.92206e-06
1.29921e-05
6.44227e-07
-1.21219e-06
1.29921e-05
-2.27156e-05
-1.21219e-06
2.25688e-06
-2.27156e-05
4.27769e-05
2.25688e-06
-4.10792e-06
4.27769e-05
-8.61811e-05
-4.10792e-06
2.38273e-05
-8.61811e-05
6.87557e-05
2.38273e-05
1.8559e-05
6.87557e-05
4.8418e-05
1.8559e-05
-8.00639e-05
4.8418e-05
-6.55195e-05
-8.00639e-05
8.59354e-05
-6.55195e-05
0.000164078
8.59354e-05
-3.99689e-05
1.22992e-07
6.14252e-08
1.24622e-06
1.2054e-06
6.14251e-08
-3.03096e-07
1.2054e-06
-1.81939e-06
-3.03096e-07
6.44227e-07
-1.81939e-06
3.08785e-06
6.44227e-07
-1.21219e-06
3.08784e-06
-5.39798e-06
-1.21219e-06
2.25688e-06
-5.39798e-06
1.01509e-05
2.25688e-06
-4.10792e-06
1.01509e-05
-1.42631e-05
-4.10792e-06
2.38273e-05
-1.42631e-05
-2.53168e-05
1.24622e-06
1.2054e-06
-2.36051e-06
-2.10815e-06
1.2054e-06
-1.81939e-06
-2.10815e-06
3.38831e-06
-1.81939e-06
3.08785e-06
3.38831e-06
-5.82936e-06
3.08784e-06
-5.39798e-06
-5.82936e-06
1.06488e-05
-5.39798e-06
1.01509e-05
1.06488e-05
-1.90454e-05
1.01509e-05
-1.42631e-05
-1.90454e-05
2.96469e-05
-1.42631e-05
-2.53167e-05
2.96468e-05
1.97055e-05
-2.36051e-06
-2.10815e-06
2.39521e-05
2.41614e-05
-2.10815e-06
3.38831e-06
2.41614e-05
-3.6899e-05
3.38831e-06
-5.82936e-06
-3.6899e-05
6.16884e-05
-5.82936e-06
1.06488e-05
6.16884e-05
-0.000110486
1.06488e-05
-1.90454e-05
-0.000110486
0.00020454
-1.90454e-05
2.96468e-05
0.00020454
-0.000296552
2.96468e-05
1.97055e-05
-0.000296552
-0.000163231
2.39521e-05
2.41614e-05
4.15223e-06
5.26367e-06
2.41614e-05
-3.6899e-05
5.26367e-06
-5.80417e-06
-3.6899e-05
6.16884e-05
-5.80417e-06
8.3719e-06
6.16884e-05
-0.000110486
8.3719e-06
-1.37948e-05
-0.000110486
0.00020454
-1.37948e-05
3.33649e-05
0.00020454
-0.000296552
3.33649e-05
-3.91375e-05
-0.000296552
-0.000163231
-3.91375e-05
-2.95487e-05
4.15223e-06
5.26367e-06
-2.60574e-06
-2.63938e-06
5.26367e-06
-5.80417e-06
-2.63938e-06
3.8798e-06
-5.80417e-06
8.3719e-06
3.8798e-06
-6.36575e-06
8.3719e-06
-1.37948e-05
-6.36574e-06
1.12696e-05
-1.37948e-05
3.33649e-05
1.12696e-05
-2.08079e-05
3.33649e-05
-3.91375e-05
-2.08079e-05
3.47094e-05
-3.91375e-05
-2.95487e-05
3.47094e-05
1.27671e-05
0.0137061
0.0584108
0.015811
0.0607807
0.0584108
0.400122
0.0607807
0.403346
0.00238689
-0.00573542
0.00230208
-0.00605921
-0.00573542
0.0137061
-0.00605921
0.015811
0.00230208
-0.00605921
-0.000368152
0.000552482
-0.000163231
-0.00183456
-0.000121399
-0.000930514
-0.000121399
-0.000930514
-2.95487e-05
-0.000693319
-0.00183456
0.00238689
-0.000930514
0.00230208
-0.000930514
0.00230208
-0.00069332
-0.000368152
-0.00799798
-0.00892051
0.160148
0.506536
-0.0089205
0.0702415
0.506536
0.606606
0.160148
0.506536
0.400122
0.593921
-0.00106747
0.000813915
0.00387456
0.0150245
0.000813915
-0.00799798
0.0150245
0.160148
0.0150245
0.160148
0.0584108
0.400121
0.00387456
0.0150245
0.0137061
0.0584108
-0.000279506
0.000555272
0.000835847
-0.0022585
0.000555272
-0.00106747
-0.0022585
0.00387456
-0.0022585
0.00387456
-0.00573542
0.0137061
0.000835847
-0.0022585
0.00238689
-0.00573542
1.97055e-05
0.000197001
-7.70471e-05
-0.00116449
-7.70471e-05
-0.00116449
-0.000163231
-0.00183456
0.000197001
-0.000279506
-0.00116449
0.000835847
-0.00116449
0.000835847
-0.00183456
0.00238689
-0.00583125
0.0012103
0.00742831
0.0166065
-0.00388429
-0.0121744
0.00610343
0.02679
-0.0121744
-0.00583125
0.02679
0.00742831
0.02679
0.00742831
-0.00892051
0.0702415
0.00610343
0.02679
-0.00799797
-0.00892051
-2.56831e-05
0.000141141
-2.22393e-05
0.000246546
0.000141141
-0.00388429
0.000246546
0.00610343
0.000246546
0.00610343
0.000813915
-0.00799798
-2.22393e-05
0.000246546
-0.00106747
0.000813915
7.241e-05
-7.22891e-05
-0.000119366
-6.02562e-05
-7.22891e-05
-2.56831e-05
-6.02561e-05
-2.22393e-05
-6.02562e-05
-2.22393e-05
0.000555272
-0.00106747
-0.000119366
-6.02561e-05
-0.000279506
0.000555272
-2.53168e-05
-0.000194848
1.00964e-05
0.000429772
1.00964e-05
0.000429772
1.97055e-05
0.000197001
-0.000194848
7.241e-05
0.000429772
-0.000119366
0.000429772
-0.000119366
0.000197001
-0.000279506
-0.00135349
0.000583955
0.002027
0.00227348
0.002027
0.00227348
-0.00583125
0.0012103
-0.000960272
-0.00328394
0.00169192
0.00697039
-0.00328394
-0.00135349
0.00697039
0.002027
0.00697039
0.002027
-0.0121744
-0.00583125
0.00169192
0.00697039
-0.00388429
-0.0121744
-3.99689e-05
-0.000178884
-0.000172784
4.01965e-05
-0.000172784
4.01965e-05
-2.56831e-05
0.000141141
-0.000178884
-0.000960272
4.01965e-05
0.00169192
4.01965e-05
0.00169192
0.000141141
-0.00388429
-8.00639e-05
8.59354e-05
7.241e-05
-7.22891e-05
8.59354e-05
-3.99689e-05
-7.22891e-05
-2.56831e-05
2.38273e-05
1.8559e-05
-2.53167e-05
-0.000194848
1.8559e-05
-8.00639e-05
-0.000194848
7.241e-05
-0.000760088
5.33469e-05
0.000302386
0.002052
0.002052
3.95937e-05
-0.00328394
-0.00135349
0.000302386
0.002052
-0.000960272
-0.00328394
0.000164078
0.000427759
6.86109e-05
0.000277208
6.86109e-05
0.000277208
-3.99689e-05
-0.000178884
0.000427759
-0.000760088
0.000277208
0.000302386
0.000277208
0.000302386
-0.000178884
-0.000960272
0.000610579
-0.000314997
0.000328265
-0.00036147
0.000328265
-0.00036147
0.000164078
0.000427759
-0.000314997
0.00154591
-0.00036147
-0.000505407
-0.00036147
-0.000505407
0.000427759
-0.000760088
0.000665149
-0.00044484
0.000923622
-0.00109994
0.000923622
-0.00109994
0.000610579
-0.000314997
3.17401e-05
0.000138331
3.46659e-05
0.000534548
0.000138331
0.000665148
0.000534548
0.00061058
-1.59712e-05
-0.000200132
7.42276e-06
-0.000305968
7.42276e-06
-0.000305968
3.17401e-05
0.000138331
-1.13855e-05
5.12244e-05
-1.59711e-05
-0.000200132
1.87934e-06
4.57142e-05
1.85991e-06
-2.80644e-05
1.85991e-06
-2.80644e-05
-4.33542e-06
3.04453e-06
-2.80644e-05
-5.99191e-05
3.04453e-06
-2.22888e-05
-5.99191e-05
7.33809e-07
-2.22888e-05
-1.58964e-05
9.34868e-07
-4.33541e-06
-1.03615e-06
3.64725e-06
-4.33541e-06
3.04453e-06
3.64725e-06
-1.43502e-05
3.04453e-06
-2.22888e-05
-1.43502e-05
-1.027e-05
-2.22888e-05
-1.58964e-05
-1.027e-05
-6.83684e-06
-1.58964e-05
-7.69915e-05
-6.83684e-06
-1.56145e-05
-7.69915e-05
-0.000110868
-1.56145e-05
-2.58675e-05
-0.000110868
-7.63445e-05
-2.58675e-05
-2.8004e-05
-7.63445e-05
-7.81439e-05
-2.8004e-05
-8.623e-06
-7.81439e-05
-0.000370261
-8.623e-06
-7.54373e-05
-0.000370261
-0.000414669
-7.54373e-05
-8.31859e-05
-0.000414669
-0.000468071
-8.31858e-05
-9.05481e-05
-0.000468071
-6.01321e-05
-9.05481e-05
-2.72203e-05
-6.01321e-05
-0.000170177
-2.72203e-05
-9.26066e-05
-0.000170177
-9.10076e-05
-9.26066e-05
-4.72313e-05
-9.10076e-05
6.64842e-05
-4.72313e-05
8.7201e-06
6.64842e-05
2.3734e-05
8.7201e-06
1.71232e-05
-1.03615e-06
3.64725e-06
1.93868e-07
-1.30273e-06
3.64725e-06
-1.43502e-05
-1.30273e-06
5.01416e-06
-1.43502e-05
-6.83684e-06
5.01416e-06
-2.84925e-07
-6.83684e-06
-1.56145e-05
-2.84925e-07
-2.22806e-06
-1.56145e-05
-2.58675e-05
-2.22806e-06
-1.78906e-06
-2.58675e-05
-2.8004e-05
-1.78906e-06
-2.26669e-07
-2.8004e-05
-8.623e-06
-2.26669e-07
-3.83982e-06
-8.623e-06
-7.54373e-05
-3.83982e-06
-1.59307e-05
-7.54373e-05
-8.31859e-05
-1.59307e-05
-2.27738e-05
-8.31859e-05
-9.05481e-05
-2.27738e-05
-1.22516e-05
-9.05481e-05
-2.72203e-05
-1.22516e-05
4.29343e-06
-2.72202e-05
-9.26067e-05
4.29343e-06
1.28473e-05
-9.26067e-05
-4.72312e-05
1.28473e-05
1.21684e-05
-4.72313e-05
8.72009e-06
1.21684e-05
4.94022e-06
8.72009e-06
1.71232e-05
4.94022e-06
-3.22579e-06
1.93868e-07
-1.30273e-06
-1.26922e-07
7.94409e-07
-1.30273e-06
5.01416e-06
7.94409e-07
-3.00288e-06
5.01416e-06
-2.84925e-07
-3.00288e-06
1.7811e-07
-2.84925e-07
-1.78906e-06
1.7811e-07
6.94713e-07
-1.78906e-06
-3.83982e-06
6.94713e-07
2.07958e-06
-3.83982e-06
-2.27738e-05
2.07958e-06
1.11836e-05
-2.27738e-05
4.29343e-06
1.11836e-05
-2.66539e-06
4.29343e-06
1.21684e-05
-2.66539e-06
-8.28184e-06
1.21684e-05
-3.22579e-06
-8.28184e-06
2.41929e-06
-1.26922e-07
7.94408e-07
8.04262e-08
-4.96285e-07
7.94408e-07
-3.00288e-06
-4.96285e-07
1.86229e-06
-3.00288e-06
1.7811e-07
1.86229e-06
-1.27067e-07
1.7811e-07
6.94713e-07
-1.27067e-07
-3.75395e-07
6.94713e-07
2.07958e-06
-3.75395e-07
-1.32749e-06
2.07958e-06
1.11836e-05
-1.32749e-06
-6.58051e-06
1.11836e-05
-2.66539e-06
-6.58051e-06
1.55582e-06
-2.66539e-06
-8.28184e-06
1.55582e-06
5.53988e-06
-8.28184e-06
2.41929e-06
5.53988e-06
-1.49107e-06
8.04263e-08
-4.96285e-07
8.55423e-08
-5.11006e-07
-4.96284e-07
1.86229e-06
-5.11006e-07
1.84301e-06
1.86229e-06
-1.27067e-07
1.84301e-06
-1.39705e-07
-1.27066e-07
-3.75395e-07
-1.39705e-07
-1.9308e-07
-3.75395e-07
-1.32749e-06
-1.9308e-07
-1.19993e-06
-1.32749e-06
-6.58051e-06
-1.19993e-06
-3.8618e-06
-6.58051e-06
1.55582e-06
-3.8618e-06
1.03179e-06
1.55582e-06
5.53988e-06
1.03179e-06
6.97806e-06
5.53988e-06
-1.49107e-06
6.97806e-06
-1.7123e-06
-5.31481e-05
-3.20869e-06
-9.10076e-05
6.64842e-05
-3.20869e-06
3.18395e-05
6.64842e-05
2.3734e-05
-6.22669e-05
-0.000177769
-6.01321e-05
-0.000170177
-0.000177769
-5.31481e-05
-0.000170177
-9.10076e-05
-0.00027168
-2.74445e-05
-0.000414669
-0.000468071
-2.74445e-05
-6.22669e-05
-0.000468071
-6.01321e-05
8.72916e-06
-0.000118844
-7.81439e-05
-0.000370261
-0.000118844
-0.00027168
-0.000370261
-0.000414669
1.56054e-05
-6.69222e-05
-0.000110868
-7.63445e-05
-6.69222e-05
8.72916e-06
-7.63445e-05
-7.81439e-05
7.33806e-07
1.71779e-05
-1.58964e-05
-7.69915e-05
1.71779e-05
1.56054e-05
-7.69915e-05
-0.000110868
-0.00125818
-0.000451471
-0.000319623
-0.000150846
-0.000451471
0.000253218
-0.000150846
4.45248e-05
-0.000150846
4.45248e-05
-3.2087e-06
3.18396e-05
-0.000319623
-0.000150846
-5.31481e-05
-3.2087e-06
0.000684879
-0.000153711
0.00039556
-0.000319396
-0.000153711
-0.00125818
-0.000319396
-0.000319623
-0.000319396
-0.000319623
-0.000177769
-5.31481e-05
0.00039556
-0.000319396
-6.22669e-05
-0.000177769
-0.000843621
0.00066308
-0.00159167
0.00033483
0.00066308
0.000684879
0.00033483
0.00039556
0.00033483
0.00039556
-2.74445e-05
-6.22669e-05
-0.00159167
0.00033483
-0.00027168