# vtk DataFile Version 2.0
Hex test
ASCII
DATASET UNSTRUCTURED_GRID
POINTS 8940 float
44 40 0
44 41 0
46 40 0
46 41 0
44 41 0
44 42 0
46 41 0
46 42 0
46 28 0
46 29 0
48 28 0
48 29 0
46 29 0
46 30 0
48 29 0
48 30 0
46 30 0
46 31 0
48 30 0
48 31 0
46 31 0
46 32 0
48 31 0
48 32 0
46 32 0
46 33 0
48 32 0
48 33 0
46 33 0
46 34 0
48 33 0
48 34 0
46 34 0
46 35 0
48 34 0
48 35 0
46 35 0
46 36 0
48 35 0
48 36 0
46 36 0
46 37 0
48 36 0
48 37 0
46 37 0
46 38 0
48 37 0
48 38 0
46 38 0
46 39 0
48 38 0
48 39 0
46 39 0
46 40 0
48 39 0
48 40 0
46 40 0
46 41 0
48 40 0
48 41 0
46 41 0
46 42 0
48 41 0
48 42 0
48 28 0
48 29 0
50 28 0
50 29 0
48 29 0
48 30 0
50 29 0
50 30 0
48 30 0
48 31 0
50 30 0
50 31 0
48 31 0
48 32 0
50 31 0
50 32 0
48 32 0
48 33 0
50 32 0
50 33 0
48 33 0
48 34 0
50 33 0
50 34 0
48 34 0
48 35 0
50 34 0
50 35 0
48 35 0
48 36 0
50 35 0
50 36 0
48 36 0
48 37 0
50 36 0
50 37 0
48 37 0
48 38 0
50 37 0
50 38 0
48 38 0
48 39 0
50 38 0
50 39 0
48 39 0
48 40 0
50 39 0
50 40 0
48 40 0
48 42 0
50 40 0
50 42 0
48 42 0
48 44 0
50 42 0
50 44 0
50 28 0
50 30 0
52 28 0
52 30 0
50 30 0
50 32 0
52 30 0
52 32 0
50 32 0
50 34 0
52 32 0
52 34 0
50 34 0
50 36 0
52 34 0
52 36 0
50 36 0
50 38 0
52 36 0
52 38 0
50 38 0
50 40 0
52 38 0
52 40 0
50 40 0
50 42 0
52 40 0
52 42 0
50 42 0
50 44 0
52 42 0
52 44 0
52 28 0
52 30 0
54 28 0
54 30 0
52 30 0
52 32 0
54 30 0
54 32 0
52 32 0
52 34 0
54 32 0
54 34 0
52 34 0
52 36 0
54 34 0
54 36 0
52 36 0
52 38 0
54 36 0
54 38 0
52 38 0
52 40 0
54 38 0
54 40 0
52 40 0
52 42 0
54 40 0
54 42 0
52 42 0
52 44 0
54 42 0
54 44 0
54 28 0
54 30 0
56.1667 28 0
56.1667 30 0
54 30 0
54 32 0
56.1667 30 0
56.1667 32 0
54 32 0
54 34 0
56.1667 32 0
56.1667 34 0
54 34 0
54 36 0
56.1667 34 0
56.1667 36 0
54 36 0
54 38 0
56.1667 36 0
56.1667 38 0
54 38 0
54 40 0
56.1667 38 0
56.1667 40 0
54 40 0
54 42 0
56.1667 40 0
56.1667 42 0
54 42 0
54 44 0
56.1667 42 0
56.1667 44 0
56.1667 28 0
56.1667 30 0
60 28 0
60 30 0
56.1667 30 0
56.1667 32 0
60 30 0
60 32 0
56.1667 32 0
56.1667 34 0
60 32 0
60 34 0
56.1667 34 0
56.1667 36 0
60 34 0
60 36 0
56.1667 36 0
56.1667 38 0
60 36 0
60 38 0
56.1667 38 0
56.1667 40 0
60 38 0
60 40 0
56.1667 40 0
56.1667 42 0
60 40 0
60 42 0
56.1667 42 0
56.1667 44 0
60 42 0
60 44 0
44 38 0
44 39 0
46 38 0
46 39 0
44 39 0
44 40 0
46 39 0
46 40 0
44 36 0
44 37 0
46 36 0
46 37 0
44 37 0
44 38 0
46 37 0
46 38 0
44 34 0
44 35 0
46 34 0
46 35 0
44 35 0
44 36 0
46 35 0
46 36 0
44 32 0
44 33 0
46 32 0
46 33 0
44 33 0
44 34 0
46 33 0
46 34 0
44 30 0
44 31 0
46 30 0
46 31 0
44 31 0
44 32 0
46 31 0
46 32 0
44 28 0
44 29 0
46 28 0
46 29 0
44 29 0
44 30 0
46 29 0
46 30 0
44 26 0
44 27 0
46 26 0
46 27 0
44 27 0
44 28 0
46 27 0
46 28 0
42 40 0
42 41 0
44 40 0
44 41 0
42 38 0
42 39 0
43 38 0
43 39 0
43 38 0
43 39 0
44 38 0
44 39 0
42 39 0
42 40 0
43 39 0
43 40 0
43 39 0
43 40 0
44 39 0
44 40 0
42 36 0
42 37 0
43 36 0
43 37 0
42 37 0
42 38 0
43 37 0
43 38 0
43 37 0
43 38 0
44 37 0
44 38 0
43 36 0
43 37 0
44 36 0
44 37 0
42 34 0
42 35 0
43 34 0
43 35 0
42 35 0
42 36 0
43 35 0
43 36 0
43 35 0
43 36 0
44 35 0
44 36 0
43 34 0
43 35 0
44 34 0
44 35 0
42 32 0
42 33 0
43 32 0
43 33 0
42 33 0
42 34 0
43 33 0
43 34 0
43 33 0
43 34 0
44 33 0
44 34 0
43 32 0
43 33 0
44 32 0
44 33 0
42 30 0
42 31 0
43 30 0
43 31 0
42 31 0
42 32 0
43 31 0
43 32 0
43 31 0
43 32 0
44 31 0
44 32 0
43 30 0
43 31 0
44 30 0
44 31 0
42 28 0
42 29 0
43 28 0
43 29 0
42 29 0
42 30 0
43 29 0
43 30 0
43 29 0
43 30 0
44 29 0
44 30 0
43 28 0
43 29 0
44 28 0
44 29 0
42 26 0
42 27 0
43 26 0
43 27 0
42 27 0
42 28 0
43 27 0
43 28 0
43 27 0
43 28 0
44 27 0
44 28 0
41 40 0
41 41 0
42 40 0
42 41 0
40 38 0
40 39 0
41 38 0
41 39 0
40 39 0
40 40 0
41 39 0
41 40 0
41 39 0
41 40 0
42 39 0
42 40 0
41 38 0
41 39 0
42 38 0
42 39 0
40 36 0
40 37 0
41 36 0
41 37 0
40 37 0
40 38 0
41 37 0
41 38 0
41 37 0
41 38 0
42 37 0
42 38 0
41 36 0
41 37 0
42 36 0
42 37 0
40 34 0
40 35 0
41 34 0
41 35 0
40 35 0
40 36 0
41 35 0
41 36 0
41 35 0
41 36 0
42 35 0
42 36 0
41 34 0
41 35 0
42 34 0
42 35 0
40 32 0
40 33 0
41 32 0
41 33 0
40 33 0
40 34 0
41 33 0
41 34 0
41 33 0
41 34 0
42 33 0
42 34 0
41 32 0
41 33 0
42 32 0
42 33 0
40 30 0
40 31 0
41 30 0
41 31 0
40 31 0
40 32 0
41 31 0
41 32 0
41 31 0
41 32 0
42 31 0
42 32 0
41 30 0
41 31 0
42 30 0
42 31 0
40 28 0
40 29 0
41 28 0
41 29 0
40 29 0
40 30 0
41 29 0
41 30 0
41 29 0
41 30 0
42 29 0
42 30 0
41 28 0
41 29 0
42 28 0
42 29 0
40 27 0
40 28 0
41 27 0
41 28 0
41 27 0
41 28 0
42 27 0
42 28 0
41 26 0
41 27 0
42 26 0
42 27 0
39 39 0
39 40 0
40 39 0
40 40 0
39 38 0
39 39 0
40 38 0
40 39 0
39 37 0
39 38 0
40 37 0
40 38 0
39 36 0
39 37 0
40 36 0
40 37 0
39 35 0
39 36 0
40 35 0
40 36 0
39 30 0
39 31 0
40 30 0
40 31 0
39 29 0
39 30 0
40 29 0
40 30 0
39 28 0
39 29 0
40 28 0
40 29 0
32 52 0
32 54 0
34 52 0
34 54 0
32 54 0
32 56.1667 0
34 54 0
34 56.1667 0
32 56.1667 0
32 60 0
34 56.1667 0
34 60 0
34 48 0
34 50 0
36 48 0
36 50 0
34 50 0
34 52 0
36 50 0
36 52 0
34 52 0
34 54 0
36 52 0
36 54 0
34 54 0
34 56.1667 0
36 54 0
36 56.1667 0
34 56.1667 0
34 60 0
36 56.1667 0
36 60 0
36 48 0
36 50 0
38 48 0
38 50 0
36 50 0
36 52 0
38 50 0
38 52 0
36 52 0
36 54 0
38 52 0
38 54 0
36 54 0
36 56.1667 0
38 54 0
38 56.1667 0
36 56.1667 0
36 60 0
38 56.1667 0
38 60 0
38 46 0
38 47 0
40 46 0
40 47 0
38 47 0
38 48 0
40 47 0
40 48 0
38 48 0
38 50 0
40 48 0
40 50 0
38 50 0
38 52 0
40 50 0
40 52 0
38 52 0
38 54 0
40 52 0
40 54 0
38 54 0
38 56.1667 0
40 54 0
40 56.1667 0
38 56.1667 0
38 60 0
40 56.1667 0
40 60 0
40 46 0
40 47 0
42 46 0
42 47 0
40 47 0
40 48 0
42 47 0
42 48 0
40 48 0
40 50 0
42 48 0
42 50 0
40 50 0
40 52 0
42 50 0
42 52 0
40 52 0
40 54 0
42 52 0
42 54 0
40 54 0
40 56.1667 0
42 54 0
42 56.1667 0
40 56.1667 0
40 60 0
42 56.1667 0
42 60 0
42 44 0
42 45 0
44 44 0
44 45 0
42 45 0
42 46 0
44 45 0
44 46 0
42 46 0
42 48 0
44 46 0
44 48 0
42 48 0
42 50 0
44 48 0
44 50 0
42 50 0
42 52 0
44 50 0
44 52 0
42 52 0
42 54 0
44 52 0
44 54 0
42 54 0
42 56.1667 0
44 54 0
44 56.1667 0
42 56.1667 0
42 60 0
44 56.1667 0
44 60 0
44 42 0
44 43 0
46 42 0
46 43 0
44 43 0
44 44 0
46 43 0
46 44 0
44 44 0
44 45 0
46 44 0
46 45 0
44 45 0
44 46 0
46 45 0
46 46 0
44 46 0
44 48 0
46 46 0
46 48 0
44 48 0
44 50 0
46 48 0
46 50 0
44 50 0
44 52 0
46 50 0
46 52 0
44 52 0
44 54 0
46 52 0
46 54 0
44 54 0
44 56.1667 0
46 54 0
46 56.1667 0
44 56.1667 0
44 60 0
46 56.1667 0
46 60 0
46 42 0
46 43 0
48 42 0
48 43 0
46 43 0
46 44 0
48 43 0
48 44 0
46 44 0
46 46 0
48 44 0
48 46 0
46 46 0
46 48 0
48 46 0
48 48 0
46 48 0
46 50 0
48 48 0
48 50 0
46 50 0
46 52 0
48 50 0
48 52 0
46 52 0
46 54 0
48 52 0
48 54 0
46 54 0
46 56.1667 0
48 54 0
48 56.1667 0
46 56.1667 0
46 60 0
48 56.1667 0
48 60 0
48 44 0
48 46 0
50 44 0
50 46 0
48 46 0
48 48 0
50 46 0
50 48 0
48 48 0
48 50 0
50 48 0
50 50 0
48 50 0
48 52 0
50 50 0
50 52 0
48 52 0
48 54 0
50 52 0
50 54 0
48 54 0
48 56.1667 0
50 54 0
50 56.1667 0
48 56.1667 0
48 60 0
50 56.1667 0
50 60 0
50 44 0
50 46 0
52 44 0
52 46 0
50 46 0
50 48 0
52 46 0
52 48 0
50 48 0
50 50 0
52 48 0
52 50 0
50 50 0
50 52 0
52 50 0
52 52 0
50 52 0
50 54 0
52 52 0
52 54 0
50 54 0
50 56.1667 0
52 54 0
52 56.1667 0
50 56.1667 0
50 60 0
52 56.1667 0
52 60 0
52 44 0
52 46 0
54 44 0
54 46 0
52 46 0
52 48 0
54 46 0
54 48 0
52 48 0
52 50 0
54 48 0
54 50 0
52 50 0
52 52 0
54 50 0
54 52 0
52 52 0
52 54 0
54 52 0
54 54 0
52 54 0
52 56.1667 0
54 54 0
54 56.1667 0
52 56.1667 0
52 60 0
54 56.1667 0
54 60 0
54 44 0
54 46 0
56.1667 44 0
56.1667 46 0
54 46 0
54 48 0
56.1667 46 0
56.1667 48 0
54 48 0
54 50 0
56.1667 48 0
56.1667 50 0
54 50 0
54 52 0
56.1667 50 0
56.1667 52 0
54 52 0
54 54 0
56.1667 52 0
56.1667 54 0
54 54 0
54 56.1667 0
56.1667 54 0
56.1667 56.1667 0
54 56.1667 0
54 60 0
56.1667 56.1667 0
56.1667 60 0
56.1667 44 0
56.1667 46 0
60 44 0
60 46 0
56.1667 46 0
56.1667 48 0
60 46 0
60 48 0
56.1667 48 0
56.1667 50 0
60 48 0
60 50 0
56.1667 50 0
56.1667 52 0
60 50 0
60 52 0
56.1667 52 0
56.1667 54 0
60 52 0
60 54 0
56.1667 54 0
56.1667 56.1667 0
60 54 0
60 56.1667 0
56.1667 56.1667 0
56.1667 60 0
60 56.1667 0
60 60 0
42 42 0
42 43 0
44 42 0
44 43 0
42 43 0
42 44 0
44 43 0
44 44 0
42 41 0
42 42 0
44 41 0
44 42 0
40 44 0
40 45 0
42 44 0
42 45 0
40 45 0
40 46 0
42 45 0
42 46 0
40 42 0
40 43 0
41 42 0
41 43 0
41 42 0
41 43 0
42 42 0
42 43 0
40 43 0
40 44 0
41 43 0
41 44 0
41 43 0
41 44 0
42 43 0
42 44 0
40 40 0
40 41 0
41 40 0
41 41 0
40 41 0
40 42 0
41 41 0
41 42 0
41 41 0
41 42 0
42 41 0
42 42 0
38 44 0
38 45 0
39 44 0
39 45 0
39 44 0
39 45 0
40 44 0
40 45 0
38 45 0
38 46 0
39 45 0
39 46 0
39 45 0
39 46 0
40 45 0
40 46 0
38 42 0
38 43 0
39 42 0
39 43 0
38 43 0
38 44 0
39 43 0
39 44 0
39 43 0
39 44 0
40 43 0
40 44 0
39 42 0
39 43 0
40 42 0
40 43 0
38 40 0
38 41 0
39 40 0
39 41 0
38 41 0
38 42 0
39 41 0
39 42 0
39 41 0
39 42 0
40 41 0
40 42 0
39 40 0
39 41 0
40 40 0
40 41 0
36 46 0
36 47 0
38 46 0
38 47 0
36 47 0
36 48 0
38 47 0
38 48 0
36 44 0
36 45 0
37 44 0
37 45 0
37 44 0
37 45 0
38 44 0
38 45 0
36 45 0
36 46 0
37 45 0
37 46 0
37 45 0
37 46 0
38 45 0
38 46 0
36 42 0
36 43 0
37 42 0
37 43 0
36 43 0
36 44 0
37 43 0
37 44 0
37 43 0
37 44 0
38 43 0
38 44 0
37 42 0
37 43 0
38 42 0
38 43 0
36 41 0
36 42 0
37 41 0
37 42 0
37 41 0
37 42 0
38 41 0
38 42 0
37 40 0
37 41 0
38 40 0
38 41 0
34 46 0
34 47 0
35 46 0
35 47 0
35 46 0
35 47 0
36 46 0
36 47 0
34 47 0
34 48 0
35 47 0
35 48 0
35 47 0
35 48 0
36 47 0
36 48 0
34 44 0
34 45 0
35 44 0
35 45 0
34 45 0
34 46 0
35 45 0
35 46 0
35 45 0
35 46 0
36 45 0
36 46 0
35 44 0
35 45 0
36 44 0
36 45 0
34 43 0
34 44 0
35 43 0
35 44 0
35 43 0
35 44 0
36 43 0
36 44 0
35 42 0
35 43 0
36 42 0
36 43 0
33 44 0
33 45 0
34 44 0
34 45 0
16 48 0
16 50 0
18 48 0
18 50 0
18 48 0
18 50 0
20 48 0
20 50 0
18 50 0
18 52 0
20 50 0
20 52 0
18 52 0
18 54 0
20 52 0
20 54 0
18 54 0
18 56.1667 0
20 54 0
20 56.1667 0
20 48 0
20 50 0
22 48 0
22 50 0
20 50 0
20 52 0
22 50 0
22 52 0
20 52 0
20 54 0
22 52 0
22 54 0
20 54 0
20 56.1667 0
22 54 0
22 56.1667 0
20 56.1667 0
20 60 0
22 56.1667 0
22 60 0
22 48 0
22 50 0
24 48 0
24 50 0
22 50 0
22 52 0
24 50 0
24 52 0
22 52 0
22 54 0
24 52 0
24 54 0
22 54 0
[...]
POINT_DATA 8940
SCALARS phi float 1
LOOKUP_TABLE default
-2.39156e-05
-3.77373e-05
-1.25365e-05
-9.57841e-06
-3.77373e-05
6.41093e-06
-9.57841e-06
-2.0166e-06
2.22092e-05
7.07675e-05
8.39753e-05
9.76152e-05
7.07675e-05
-6.8046e-05
9.76152e-05
0.000148171
-6.8046e-05
-1.66376e-05
0.000148171
0.000383317
-1.66376e-05
-0.00027454
0.000383317
0.000273238
-0.00027454
-0.00030344
0.000273238
-5.31679e-05
-0.00030344
7.7924e-05
-5.31679e-05
-3.00108e-05
7.7924e-05
4.39063e-05
-3.00108e-05
-9.47569e-05
4.39063e-05
-1.01725e-05
-9.47569e-05
5.14988e-06
-1.01725e-05
-3.08947e-06
5.14988e-06
3.5399e-05
-3.08947e-06
1.18496e-05
3.5399e-05
-9.09081e-06
1.18496e-05
-1.47665e-06
-9.09082e-06
-1.19219e-05
-1.47665e-06
-1.25365e-05
-1.19219e-05
1.36164e-05
-1.25365e-05
-9.57841e-06
1.36164e-05
9.68553e-06
-9.57841e-06
-2.0166e-06
9.68553e-06
-5.87874e-06
8.39753e-05
9.76152e-05
-1.12688e-05
5.4191e-05
9.76152e-05
0.000148171
5.4191e-05
8.35608e-05
0.000148171
0.000383317
8.35608e-05
-2.3977e-06
0.000383317
0.000273238
-2.3977e-06
-9.14227e-05
0.000273238
-5.31679e-05
-9.14227e-05
-6.90266e-05
-5.31679e-05
-3.00108e-05
-6.90266e-05
-3.32273e-06
-3.00108e-05
-9.47568e-05
-3.32273e-06
1.76044e-05
-9.47568e-05
5.14989e-06
1.76044e-05
8.38301e-06
5.14989e-06
3.5399e-05
8.38301e-06
1.71189e-06
3.5399e-05
-9.09081e-06
1.71189e-06
-1.37693e-07
-9.09081e-06
-1.19219e-05
-1.37693e-07
-1.40841e-06
-1.19219e-05
1.36164e-05
-1.40841e-06
-1.97187e-06
1.36164e-05
-5.87874e-06
-1.97187e-06
-2.98565e-08
-5.87874e-06
3.78642e-06
-2.98563e-08
-3.22163e-07
-1.12688e-05
8.35607e-05
9.64224e-06
-6.43436e-06
8.35608e-05
-9.14227e-05
-6.43436e-06
5.65885e-05
-9.14227e-05
-3.32273e-06
5.65885e-05
-8.24257e-06
-3.32274e-06
8.38301e-06
-8.24257e-06
-1.00017e-06
8.38301e-06
-1.37693e-07
-1.00018e-06
-7.65142e-07
-1.37693e-07
-1.97187e-06
-7.65142e-07
1.51502e-06
-1.97187e-06
-2.98568e-08
1.51502e-06
-3.28242e-07
-2.98561e-08
-3.22163e-07
-3.28242e-07
2.91423e-07
9.64225e-06
-6.43437e-06
-5.10173e-06
6.18501e-06
-6.43436e-06
5.65885e-05
6.18501e-06
-2.72039e-05
5.65885e-05
-8.24257e-06
-2.72039e-05
1.75942e-06
-8.24256e-06
-1.00018e-06
1.75941e-06
8.9124e-07
-1.00018e-06
-7.65142e-07
8.9124e-07
-9.58733e-08
-7.65142e-07
1.51502e-06
-9.58733e-08
-5.85731e-07
1.51502e-06
-3.28242e-07
-5.8573e-07
1.67099e-07
-3.28242e-07
2.91423e-07
1.67099e-07
-1.04315e-07
-5.10173e-06
6.18502e-06
2.83452e-06
-7.1504e-06
6.18501e-06
-2.72039e-05
-7.15041e-06
9.40745e-06
-2.72039e-05
1.75942e-06
9.40745e-06
3.34575e-06
1.75941e-06
8.9124e-07
3.34575e-06
-7.78293e-07
8.91239e-07
-9.58733e-08
-7.78293e-07
7.93255e-07
-9.58732e-08
-5.85731e-07
7.93255e-07
-4.27463e-08
-5.85731e-07
1.67099e-07
-4.27463e-08
-9.08181e-08
1.67098e-07
-1.04315e-07
-9.08181e-08
-2.16206e-08
2.83452e-06
-7.15041e-06
2.44069e-06
-3.66203e-06
-7.15041e-06
9.40745e-06
-3.66203e-06
1.02912e-05
9.40745e-06
3.34575e-06
1.02912e-05
6.78366e-07
3.34575e-06
-7.78293e-07
6.78366e-07
-6.41782e-07
-7.78293e-07
7.93255e-07
-6.41782e-07
3.22128e-07
7.93255e-07
-4.27463e-08
3.22128e-07
1.69354e-07
-4.27463e-08
-9.08181e-08
1.69354e-07
-7.76735e-08
-9.08181e-08
-2.16206e-08
-7.76735e-08
2.19393e-08
-1.83022e-05
-3.78765e-06
1.18496e-05
-1.47665e-06
-3.78765e-06
-2.39156e-05
-1.47665e-06
-1.25365e-05
-5.88425e-06
2.88164e-05
-1.01725e-05
-3.08947e-06
2.88164e-05
-1.83022e-05
-3.08947e-06
1.18496e-05
0.00014182
1.99536e-05
7.7924e-05
4.39063e-05
1.99536e-05
-5.88424e-06
4.39064e-05
-1.01725e-05
-0.000145356
-0.000223361
-0.00027454
-0.00030344
-0.000223362
0.00014182
-0.00030344
7.7924e-05
-5.24808e-05
9.29951e-05
-6.8046e-05
-1.66376e-05
9.29951e-05
-0.000145356
-1.66376e-05
-0.00027454
-2.89172e-05
2.60968e-06
2.22092e-05
7.07675e-05
2.60968e-06
-5.24808e-05
7.07675e-05
-6.8046e-05
-3.576e-05
-3.34541e-05
-1.24355e-05
-1.56625e-05
-3.34541e-05
-2.89172e-05
-1.56625e-05
2.22092e-05
-2.28328e-06
-1.57895e-05
-2.39156e-05
-3.77373e-05
9.50824e-05
0.00015039
-1.02526e-05
-6.61109e-05
-1.02526e-05
-6.61109e-05
-1.83022e-05
-3.78765e-06
0.00015039
-2.28329e-06
-6.61109e-05
-1.15916e-05
-6.61109e-05
-1.15916e-05
-3.78765e-06
-2.39156e-05
0.000206242
-0.000109344
-4.55752e-05
8.48799e-05
-0.000109344
9.50824e-05
8.48799e-05
-1.02526e-05
8.48799e-05
-1.02526e-05
2.88164e-05
-1.83022e-05
-4.55752e-05
8.48799e-05
-5.88424e-06
2.88164e-05
-0.00167246
-0.000277142
0.000624294
0.000122
-0.000277142
0.000206242
0.000122
-4.55751e-05
0.000122
-4.55751e-05
1.99536e-05
-5.88425e-06
0.000624294
0.000122
0.00014182
1.99536e-05
0.00304045
0.00382122
-0.00102099
-0.00131832
0.00382122
-0.00167246
-0.00131832
0.000624295
-0.00131832
0.000624294
-0.000223361
0.00014182
-0.00102099
-0.00131832
-0.000145356
-0.000223361
0.000362871
0.000126927
-9.88396e-05
1.30426e-06
0.000126927
0.00304045
1.30424e-06
-0.00102099
1.30423e-06
-0.00102099
9.29951e-05
-0.000145356
-9.88396e-05
1.30423e-06
-5.24808e-05
9.29951e-05
0.000238587
0.00025617
-0.000120198
-0.000112497
0.00025617
0.000362871
-0.000112497
-9.88395e-05
-0.000112497
-9.88396e-05
2.60968e-06
-5.24808e-05
-0.000120198
-0.000112497
-2.89172e-05
2.60968e-06
0.000214341
0.000187293
-8.07972e-05
-7.94335e-05
0.000187294
0.000238587
-7.94335e-05
-0.000120198
-7.94335e-05
-0.000120198
-3.34541e-05
-2.89172e-05
1.78564e-05
1.4791e-06
-2.28328e-06
-1.57895e-05
0.000238776
0.000178434
0.000115465
0.000425977
0.000178434
7.96576e-05
0.000425977
1.78564e-05
0.000425977
1.78564e-05
0.00015039
-2.28328e-06
0.000115465
0.000425977
9.50824e-05
0.00015039
0.000842947
-0.000611732
-0.000359199
0.000330247
-0.000611732
0.000238776
0.000330247
0.000115465
0.000330247
0.000115465
-0.000109344
9.50824e-05
-0.000359199
0.000330247
0.000206242
-0.000109344
-0.00659976
-0.0010309
0.00522606
0.000871089
-0.0010309
0.000842947
0.00087109
-0.000359199
0.000871089
-0.000359199
-0.000277142
0.000206242
0.00522606
0.000871089
-0.00167246
-0.000277142
0.0147037
0.0173704
-0.00887383
-0.00925033
0.0173704
-0.00659976
-0.00925033
0.00522606
-0.00925033
0.00522606
0.00382122
-0.00167246
-0.00887384
-0.00925033
0.00304045
0.00382122
0.00606835
0.00459657
-0.00107675
-0.00167724
0.00459658
0.0147037
-0.00167724
-0.00887383
-0.00167724
-0.00887383
0.000126927
0.00304045
-0.00107675
-0.00167724
0.000362871
0.000126927
0.00809729
0.0066015
-0.000175083
-0.000316489
0.0066015
0.00606835
-0.000316489
-0.00107675
-0.000316489
-0.00107675
0.00025617
0.000362871
-0.000175083
-0.000316489
0.000238587
0.00025617
0.00795133
0.00809729
-5.8728e-05
-0.000175083
-5.8728e-05
-0.000175083
0.000187294
0.000238587
-0.00010976
-5.8728e-05
0.000214341
0.000187294
0.00020121
4.53968e-05
0.000178434
7.96575e-05
-7.93305e-05
0.00020121
0.000238776
0.000178434
0.00140256
-7.93306e-05
-0.000611732
0.000238776
-0.00111529
0.00140256
0.000842947
-0.000611732
0.00344893
-0.00111529
-0.0010309
0.000842947
0.15225
0.160753
0.00606835
0.00459657
0.158847
0.15225
0.0066015
0.00606835
0.163823
0.158847
0.00809729
0.0066015
3.2859e-06
-3.88681e-06
3.91904e-06
-1.45793e-06
-3.88681e-06
2.04042e-06
-1.45793e-06
1.15218e-07
2.04042e-06
-1.31987e-07
1.15218e-07
6.44109e-07
-3.10581e-06
1.76242e-06
1.04187e-05
4.76819e-06
1.76242e-06
3.91904e-06
4.76819e-06
-8.42765e-07
3.91904e-06
-1.45793e-06
-8.42765e-07
6.18084e-07
-1.45793e-06
1.15217e-07
6.18084e-07
-6.58434e-07
1.15218e-07
6.44109e-07
-6.58434e-07
-5.19831e-07
1.04187e-05
4.76819e-06
2.13259e-06
3.86065e-08
4.76819e-06
-8.42766e-07
3.86066e-08
4.10203e-07
-8.42765e-07
6.18084e-07
4.10202e-07
-1.68825e-07
6.18084e-07
-6.58434e-07
-1.68825e-07
1.6059e-07
-6.58434e-07
-5.19831e-07
1.6059e-07
1.7168e-07
1.05426e-05
6.92102e-06
5.49032e-07
-3.91051e-06
6.92102e-06
2.13259e-06
-3.91051e-06
-3.93133e-06
2.13259e-06
3.86065e-08
-3.93133e-06
3.24581e-07
3.86065e-08
4.10202e-07
3.24581e-07
-6.19719e-08
4.10203e-07
-1.68825e-07
-6.19719e-08
8.24616e-08
-1.68825e-07
1.6059e-07
8.24616e-08
4.38226e-08
1.6059e-07
1.7168e-07
4.38226e-08
6.50976e-09
5.49032e-07
-3.91051e-06
9.68163e-07
-1.52524e-06
-3.91051e-06
-3.93133e-06
-1.52524e-06
-1.03301e-06
-3.93133e-06
3.24581e-07
-1.03301e-06
4.25576e-07
3.24581e-07
-6.19719e-08
4.25576e-07
-1.256e-07
-6.19719e-08
8.24616e-08
-1.256e-07
8.63834e-08
8.24616e-08
4.38226e-08
8.63834e-08
-7.94914e-08
4.38226e-08
6.50976e-09
-7.94914e-08
-5.63199e-08
1.70744e-05
7.8041e-06
9.34059e-06
3.30925e-06
7.8041e-06
9.68163e-07
3.30925e-06
1.68216e-06
9.68164e-07
-1.03301e-06
1.68216e-06
-1.47653e-07
-1.03301e-06
4.25576e-07
-1.47653e-07
1.91674e-07
4.25576e-07
-1.256e-07
1.91674e-07
-4.63862e-08
-1.256e-07
8.63834e-08
-4.63862e-08
7.8374e-08
8.63834e-08
-7.94914e-08
7.8374e-08
-9.1639e-08
-7.94914e-08
-5.63199e-08
-9.1639e-08
-1.99085e-08
6.41093e-06
2.08455e-05
-2.0166e-06
2.0921e-06
2.08455e-05
9.34059e-06
2.0921e-06
2.60055e-06
9.34059e-06
3.30925e-06
2.60055e-06
8.60872e-07
3.30925e-06
1.68216e-06
8.60872e-07
-8.67161e-07
1.68216e-06
-1.47653e-07
-8.67161e-07
1.30113e-07
-1.47653e-07
1.91674e-07
1.30113e-07
3.23947e-07
1.91674e-07
-4.63862e-08
3.23947e-07
-1.47102e-08
-4.63862e-08
7.8374e-08
-1.47102e-08
1.8357e-09
7.8374e-08
-9.1639e-08
1.8357e-09
1.45145e-08
-9.1639e-08
-1.99085e-08
1.45145e-08
6.54813e-09
-2.0166e-06
2.0921e-06
-5.87874e-06
-4.22295e-06
2.0921e-06
2.60055e-06
-4.22295e-06
3.78642e-06
2.60055e-06
-8.67161e-07
3.78642e-06
-1.85718e-06
-8.67161e-07
1.30113e-07
-1.85718e-06
8.00419e-07
1.30113e-07
3.23947e-07
8.00419e-07
-2.58784e-07
3.23947e-07
-1.47102e-08
-2.58784e-07
2.30199e-07
-1.47102e-08
1.8357e-09
2.30199e-07
-7.11195e-08
1.8357e-09
1.45145e-08
-7.11194e-08
-2.48268e-08
1.45145e-08
6.54813e-09
-2.48268e-08
2.18239e-09
3.78642e-06
-1.85718e-06
-3.22163e-07
2.54734e-07
-1.85718e-06
8.00419e-07
2.54734e-07
-4.0719e-08
8.0042e-07
-2.58784e-07
-4.0719e-08
-6.05505e-08
-2.58784e-07
2.30199e-07
-6.05505e-08
-4.63032e-09
2.30199e-07
-7.11194e-08
-4.63031e-09
-1.33898e-08
-7.11194e-08
-2.48268e-08
-1.33898e-08
2.19894e-08
-2.48268e-08
2.18239e-09
2.19894e-08
4.31029e-09
-3.22164e-07
2.54734e-07
2.91423e-07
-1.49427e-07
2.54734e-07
-4.0719e-08
-1.49427e-07
5.54116e-08
-4.07189e-08
-6.05505e-08
5.54116e-08
-6.63158e-09
-6.05505e-08
-4.6303e-09
-6.63158e-09
1.52666e-08
-4.63032e-09
-1.33898e-08
1.52666e-08
-6.55907e-10
-1.33898e-08
2.19894e-08
-6.55906e-10
-7.47417e-09
2.19894e-08
4.31029e-09
-7.47417e-09
-1.03871e-09
2.91423e-07
-1.49427e-07
-1.04315e-07
2.87929e-08
-1.49427e-07
5.54116e-08
2.87929e-08
-1.80931e-08
5.54116e-08
-6.63158e-09
-1.80931e-08
7.96274e-09
-6.63158e-09
1.52666e-08
7.96273e-09
-5.57848e-09
1.52666e-08
-6.55907e-10
-5.57848e-09
5.8285e-10
-6.55907e-10
-7.47417e-09
5.8285e-10
2.31061e-09
-7.47417e-09
-1.03871e-09
2.31061e-09
4.05016e-11
-1.04315e-07
2.87929e-08
-2.16206e-08
6.61681e-08
2.87929e-08
-1.80931e-08
6.61681e-08
-6.84543e-09
-1.80931e-08
7.96273e-09
-6.84543e-09
-1.3614e-08
7.96274e-09
-5.57848e-09
-1.3614e-08
-3.17673e-10
-5.57847e-09
5.82851e-10
-3.17674e-10
-1.34713e-09
5.8285e-10
2.31061e-09
-1.34713e-09
1.93792e-09
2.31061e-09
4.05016e-11
1.93792e-09
9.63942e-10
-2.16206e-08
6.61681e-08
2.19393e-08
1.45471e-08
6.61681e-08
-6.84543e-09
1.45471e-08
3.03921e-09
-6.84543e-09
-1.3614e-08
3.03921e-09
-4.82549e-09
-1.3614e-08
-3.17674e-10
-4.82549e-09
1.10833e-09
-3.17673e-10
-1.34713e-09
1.10833e-09
-5.19825e-10
-1.34713e-09
1.93792e-09
-5.19825e-10
1.95774e-10
1.93792e-09
9.63942e-10
1.95774e-10
4.938e-10
1.19045e-05
2.71933e-05
6.41093e-06
2.08455e-05
2.71933e-05
1.70744e-05
2.08455e-05
9.34059e-06
-1.57895e-05
1.19045e-05
-3.77373e-05
6.41093e-06
-1.05423e-07
-1.61031e-06
1.70744e-05
7.8041e-06
-1.61031e-06
5.49032e-07
7.8041e-06
9.68163e-07
1.4397e-05
-5.89949e-06
8.47498e-06
5.85316e-06
8.47498e-06
5.85316e-06
1.19045e-05
2.71933e-05
-5.89949e-06
-1.05423e-07
5.85316e-06
8.66945e-06
5.85316e-06
8.66945e-06
2.71933e-05
1.70744e-05
7.96575e-05
5.08323e-05
1.78564e-05
1.4791e-06
5.08322e-05
1.4397e-05
1.4791e-06
8.47498e-06
1.4791e-06
8.47498e-06
-1.57895e-05
1.19045e-05
-2.15953e-05
-4.18119e-05
-8.53006e-07
-7.27796e-06
-8.53006e-07
-7.27796e-06
-1.05423e-07
-1.61031e-06
-4.18119e-05
1.05426e-05
-7.27796e-06
5.39042e-06
-7.27796e-06
5.39042e-06
-1.61031e-06
5.49032e-07
8.25324e-06
-2.54542e-05
3.54573e-06
-3.71047e-05
-2.54542e-05
-2.15953e-05
-3.71047e-05
-8.53005e-07
-3.71047e-05
-8.53005e-07
-5.89949e-06
-1.05423e-07
3.54573e-06
-3.71047e-05
1.4397e-05
-5.89949e-06
5.43021e-05
7.66902e-05
4.53968e-05
0.000171862
7.66903e-05
8.25323e-06
0.000171862
3.54574e-06
0.000171862
3.54573e-06
5.08323e-05
1.4397e-05
4.53968e-05
0.000171862
7.96575e-05
5.08323e-05
-2.30171e-05
2.35417e-06
1.05426e-05
6.92102e-06
2.35417e-06
1.04187e-05
6.92102e-06
2.13259e-06
1.32083e-05
-6.641e-06
-6.28689e-05
-0.000112622
-6.28689e-05
-0.000112622
-2.15953e-05
-4.18119e-05
-6.641e-06
-2.30171e-05
-0.000112622
7.90573e-06
-0.000112622
7.90573e-06
-4.18119e-05
1.05426e-05
2.84539e-05
-3.46722e-05
-0.000133037
0.000112512
-3.46722e-05
1.32083e-05
0.000112512
-6.2869e-05
0.000112512
-6.2869e-05
-2.54542e-05
-2.15953e-05
-0.000133037
0.000112512
8.25323e-06
-2.54542e-05
0.000251122
2.84539e-05
0.000287006
-0.000133037
0.000287006
-0.000133037
7.66902e-05
8.25323e-06
-0.000480901
0.000287006
5.43021e-05
7.66902e-05
-2.23912e-05
-5.16807e-05
-6.59604e-05
-6.23699e-05
-6.59604e-05
-6.23699e-05
-2.30171e-05
2.35417e-06
-5.16807e-05
-3.10582e-06
-6.23699e-05
-4.18156e-06
-6.23699e-05
-4.18156e-06
2.35417e-06
1.04187e-05
0.00029299
-0.000300176
-0.000120234
-1.29521e-05
-0.000300176
-2.23912e-05
-1.29521e-05
-6.59604e-05
-1.29521e-05
-6.59604e-05
-6.64101e-06
-2.30171e-05
-0.000120234
-1.29521e-05
1.32083e-05
-6.641e-06
-0.000704367
0.00029299
0.000208539
-0.000120234
0.000208539
-0.000120234
-3.46722e-05
1.32083e-05
-0.000387442
0.000208539
2.84539e-05
-3.46722e-05
0.000324943
-0.000266855
0.00029299
-0.000300176
-7.98045e-05
-1.34981e-05
0.000411753
-4.80304e-07
0.000411753
-4.80294e-07
0.00054159
5.93906e-05
-4.80295e-07
2.82774e-05
5.93906e-05
1.29461e-06
2.82774e-05
-1.0295e-05
1.29461e-06
2.1958e-06
-1.0295e-05
-6.76419e-07
2.1958e-06
-3.52217e-06
0.00054159
5.93906e-05
6.59448e-05
1.67324e-05
5.93906e-05
1.29461e-06
1.67324e-05
-6.28439e-06
1.29461e-06
2.1958e-06
-6.28438e-06
6.82461e-06
2.1958e-06
-3.52217e-06
6.82461e-06
-7.62191e-06
-3.52217e-06
-2.72416e-06
-7.62191e-06
-4.3875e-06
6.59448e-05
1.67324e-05
0.000344582
4.65099e-05
1.67324e-05
-6.28439e-06
4.65099e-05
-1.41496e-06
-6.28439e-06
6.82461e-06
-1.41496e-06
4.93301e-06
6.82461e-06
-7.62191e-06
4.93301e-06
-6.9334e-06
-7.62191e-06
-4.3875e-06
-6.9334e-06
-4.59558e-06
0.000187385
0.000461555
0.000820862
0.00112028
0.000461555
0.000344582
0.00112028
0.000628828
0.000344582
4.65099e-05
0.000628828
8.18149e-05
4.65099e-05
-1.41496e-06
8.18149e-05
-6.44971e-06
-1.41496e-06
4.93301e-06
-6.44971e-06
7.3293e-06
4.93301e-06
-6.9334e-06
7.3293e-06
-7.22023e-06
-6.9334e-06
-4.59558e-06
-7.22023e-06
-5.08774e-06
0.000628828
8.18149e-05
0.000692384
5.85489e-05
8.18149e-05
-6.44971e-06
5.85489e-05
1.6793e-05
-6.44971e-06
7.3293e-06
1.6793e-05
-2.92183e-06
7.3293e-06
-7.22023e-06
-2.92183e-06
-4.4669e-06
-7.22023e-06
-5.08774e-06
-4.4669e-06
-1.99007e-06
0.000692384
5.85489e-05
0.000514726
9.69529e-06
5.85489e-05
1.6793e-05
9.69529e-06
2.43634e-05
1.6793e-05
-2.92183e-06
2.43634e-05
-1.48592e-05
-2.92183e-06
-4.4669e-06
-1.48592e-05
1.03286e-05
-4.4669e-06
-1.99007e-06
1.03286e-05
6.49661e-06
0.000514726
9.69529e-06
0.000162639
1.988e-05
9.6953e-06
2.43634e-05
1.988e-05
3.2859e-06
2.43634e-05
-1.48592e-05
3.2859e-06
-3.88681e-06
-1.48592e-05
1.03286e-05
-3.88681e-06
2.04042e-06
1.03286e-05
6.49661e-06
2.04042e-06
-1.31987e-07
0.000162639
1.988e-05
-3.10581e-06
1.76242e-06
1.988e-05
3.2859e-06
1.76242e-06
3.91904e-06
0.000367592
0.000142928
4.91159e-05
-1.18523e-05
4.91159e-05
-1.18523e-05
-2.23912e-05
-5.16807e-05
0.000142928
0.000162639
-1.18523e-05
4.77573e-05
-1.18523e-05
4.77573e-05
-5.16807e-05
-3.10582e-06
0.000639214
0.000121907
0.000324943
-0.000266855
0.000121907
0.000367592
-0.000266855
4.91159e-05
-0.000266855
4.91159e-05
-0.000300176
-2.23912e-05
0.00176863
0.00109831
0.000969234
0.00050337
0.000969234
0.00050337
0.000367592
0.000142928
0.00109831
0.000514726
0.00050337
0.000337452
0.00050337
0.000337452
0.000142928
0.000162639
0.00277171
-0.00191859
0.00184253
5.15399e-05
-0.00191859
0.00176863
5.15399e-05
0.000969234
5.15399e-05
0.000969234
0.000121907
0.000367592
0.00184253
5.15399e-05
0.000639214
0.000121907
-0.00768144
0.00277171
-0.00433029
0.00184253
0.00107375
0.00105512
0.00175497
0.00129601
0.00175497
0.00129601
0.00176863
0.00109831
0.00105512
0.000692384
0.00129601
0.000636016
0.00129601
0.000636016
0.00109831
0.000514726
-0.00112318
-2.09275e-05
0.00128857
-0.00242947
-2.09274e-05
0.00107375
-0.00242947
0.00175497
-0.00242947
0.00175497
-0.00191859
0.00176863
0.00128857
-0.00242947
0.00277171
-0.00191859
-0.00390611
0.00217616
0.00929273
-0.00435433
0.00217616
-0.00112318
-0.00435433
0.00128857
-0.00435433
0.00128857
-0.00768144
0.00277171
0.000820862
0.00112028
0.00107375
0.00105512
0.00112028
0.000628828
0.00105512
0.000692384
-0.00130942
0.00134284
-0.00139436
0.00149663
-0.00139436
0.00149663
-0.00112318
-2.09275e-05
0.00134284
0.000820862
0.00149663
0.00083154
0.00149663
0.00083154
-2.09276e-05
0.00107375
-0.00587167
0.00297518
-0.00600769
0.00305513
0.00297518
-0.00130942
0.00305513
-0.00139436
0.00305513
-0.00139436
0.00217616
-0.00112318
-0.00600769
0.00305513
-0.00390611
0.00217616
0.0140047
-0.00587167
0.0147523
-0.00600769
0.0147523
-0.00600769
0.0126814
-0.00390611
-0.00130042
0.00093124
-0.00134465
0.00114772
-0.00134465
0.00114772
-0.00130942
0.00134284
0.00093124
0.000187385
0.00114772
0.000577567
0.00114772
0.000577567
0.00134284
0.000820862
-0.00537855
0.00275435
-0.00585567
0.00295821
0.00275435
-0.00130042
0.00295821
-0.00134465
0.00295821
-0.00134465
0.00297518
-0.00130942
-0.00585567
0.00295821
-0.00587167
0.00297518
0.0400539
0.0120626
0.0739006
0.0140518
0.0120626
-0.00537855
0.0140518
-0.00585567
0.0140518
-0.00585567
0.0140047
-0.00587167
0.0739006
0.0140518
0.0826999
0.0140047
0.515093
0.0400539
0.652123
0.0739006
4.31934e-05
0.000139814
0.000187385
0.000461555
0.000139814
6.59448e-05
0.000461555
0.000344582
-0.000751992
0.000672367
-0.000981324
0.00053449
-0.000981324
0.00053449
-0.00130042
0.00093124
0.000672367
4.31934e-05
0.00053449
-0.000103487
0.00053449
-0.000103487
0.00093124
0.000187385
-0.00339936
0.00172623
-0.0037948
0.00195249
0.00172623
-0.000751992
0.00195249
-0.000981324
0.00195249
-0.000981324
0.00275435
-0.00130042
-0.0037948
0.00195249
-0.00537855
0.00275435
0.018625
0.007273
0.0227564
0.00867823
0.007273
-0.00339936
0.00867823
-0.0037948
0.00867823
-0.0037948
0.0120626
-0.00537855
0.0227564
0.00867823
0.0400539
0.0120626
0.000952514
0.000911732
0.000664306
0.000543074
0.000664306
0.000543074
4.31934e-05
0.000139814
0.000911732
0.00054159
0.000543074
0.000281454
0.000543074
0.000281454
0.000139814
6.59448e-05
-0.000910888
0.00150751
-0.000884209
0.00172331
0.00150751
0.000952514
0.00172331
0.000664306
0.00172331
0.000664306
0.000672367
4.31934e-05
-0.000884209
0.00172331
-0.000751992
0.000672367
-0.00475586
0.00240704
-0.00463699
0.00244979
0.00240704
-0.000910888
0.00244979
-0.000884209
0.00244979
-0.000884209
0.00172623
-0.000751991
-0.00463699
0.00244979
-0.00339936
0.00172623
0.0142652
-0.00475586
0.0111638
-0.00463699
0.0111638
-0.00463699
0.007273
-0.00339936
0.0010145
0.000637482
0.00124594
0.00102612
0.00124594
0.00102612
0.000952514
0.000911732
0.000637482
0.000411753
0.00102612
0.000583722
0.00102612
0.000583722
0.000911732
0.00054159
0.0013382
-0.000587671
0.000746952
-7.38375e-05
-0.000587671
0.0010145
-7.38376e-05
0.00124594
-7.38376e-05
0.00124594
0.00150751
0.000952514
0.000746952
-7.38376e-05
-0.000910888
0.0015075
0.00867183
-0.00267015
0.00396822
-0.00151632
-0.00267015
0.0013382
-0.00151632
0.000746952
-0.00151632
0.000746952
0.00240704
-0.000910888
0.00396822
-0.00151632
-0.00475586
0.00240704
0.0248685
0.00396822
0.0142652
-0.00475586
-0.000304388
-0.0002363
5.4211e-05
7.55597e-06
5.4211e-05
7.55597e-06
0.0010145
0.000637482