# vtk DataFile Version 2.0
Hex test
ASCII
DATASET UNSTRUCTURED_GRID
POINTS 10348 float
16 14 0
16 15 0
18 14 0
18 15 0
16 15 0
16 16 0
18 15 0
18 16 0
18 14 0
18 15 0
20 14 0
20 15 0
18 15 0
18 16 0
20 15 0
20 16 0
18 16 0
18 18 0
20 16 0
20 18 0
20 14 0
20 16 0
22 14 0
22 16 0
20 16 0
20 18 0
22 16 0
22 18 0
20 18 0
20 20 0
22 18 0
22 20 0
22 14 0
22 16 0
24 14 0
24 16 0
22 16 0
22 18 0
24 16 0
24 18 0
22 18 0
22 20 0
24 18 0
24 20 0
24 14 0
24 16 0
26 14 0
26 16 0
24 16 0
24 18 0
26 16 0
26 18 0
24 18 0
24 20 0
26 18 0
26 20 0
24 12 0
24 13 0
25 12 0
25 13 0
25 12 0
25 13 0
26 12 0
26 13 0
24 13 0
24 14 0
25 13 0
25 14 0
25 13 0
25 14 0
26 13 0
26 14 0
24 10 0
24 11 0
25 10 0
25 11 0
24 11 0
24 12 0
25 11 0
25 12 0
25 11 0
25 12 0
26 11 0
26 12 0
25 10 0
25 11 0
26 10 0
26 11 0
24 8 0
24 9 0
25 8 0
25 9 0
24 9 0
24 10 0
25 9 0
25 10 0
25 9 0
25 10 0
26 9 0
26 10 0
22 12 0
22 13 0
24 12 0
24 13 0
22 13 0
22 14 0
24 13 0
24 14 0
22 10 0
22 11 0
23 10 0
23 11 0
23 10 0
23 11 0
24 10 0
24 11 0
22 11 0
22 12 0
23 11 0
23 12 0
23 11 0
23 12 0
24 11 0
24 12 0
22 8 0
22 9 0
23 8 0
23 9 0
22 9 0
22 10 0
23 9 0
23 10 0
23 9 0
23 10 0
24 9 0
24 10 0
23 8 0
23 9 0
24 8 0
24 9 0
22 7 0
22 8 0
23 7 0
23 8 0
20 12 0
20 13 0
22 12 0
22 13 0
20 13 0
20 14 0
22 13 0
22 14 0
20 10 0
20 11 0
21 10 0
21 11 0
21 10 0
21 11 0
22 10 0
22 11 0
20 11 0
20 12 0
21 11 0
21 12 0
21 11 0
21 12 0
22 11 0
22 12 0
20 8 0
20 9 0
21 8 0
21 9 0
20 9 0
20 10 0
21 9 0
21 10 0
21 9 0
21 10 0
22 9 0
22 10 0
21 8 0
21 9 0
22 8 0
22 9 0
20 6 0
20 7 0
21 6 0
21 7 0
20 7 0
20 8 0
21 7 0
21 8 0
21 7 0
21 8 0
22 7 0
22 8 0
21 6 0
21 7 0
22 6 0
22 7 0
18 12 0
18 13 0
19 12 0
19 13 0
19 12 0
19 13 0
20 12 0
20 13 0
18 13 0
18 14 0
19 13 0
19 14 0
19 13 0
19 14 0
20 13 0
20 14 0
18 10 0
18 11 0
19 10 0
19 11 0
18 11 0
18 12 0
19 11 0
19 12 0
19 11 0
19 12 0
20 11 0
20 12 0
19 10 0
19 11 0
20 10 0
20 11 0
18 8 0
18 9 0
19 8 0
19 9 0
18 9 0
18 10 0
19 9 0
19 10 0
19 9 0
19 10 0
20 9 0
20 10 0
19 8 0
19 9 0
20 8 0
20 9 0
18 6 0
18 7 0
19 6 0
19 7 0
18 7 0
18 8 0
19 7 0
19 8 0
19 7 0
19 8 0
20 7 0
20 8 0
19 6 0
19 7 0
20 6 0
20 7 0
18 5 0
18 6 0
19 5 0
19 6 0
19 5 0
19 6 0
20 5 0
20 6 0
16 12 0
16 13 0
17 12 0
17 13 0
17 12 0
17 13 0
18 12 0
18 13 0
16 13 0
16 14 0
17 13 0
17 14 0
17 13 0
17 14 0
18 13 0
18 14 0
16 10 0
16 11 0
17 10 0
17 11 0
16 11 0
16 12 0
17 11 0
17 12 0
17 11 0
17 12 0
18 11 0
18 12 0
17 10 0
17 11 0
18 10 0
18 11 0
16 8 0
16 9 0
17 8 0
17 9 0
16 9 0
16 10 0
17 9 0
17 10 0
17 9 0
17 10 0
18 9 0
18 10 0
17 8 0
17 9 0
18 8 0
18 9 0
16 6 0
16 7 0
17 6 0
17 7 0
16 7 0
16 8 0
17 7 0
17 8 0
17 7 0
17 8 0
18 7 0
18 8 0
17 6 0
17 7 0
18 6 0
18 7 0
16 5 0
16 6 0
17 5 0
17 6 0
17 5 0
17 6 0
18 5 0
18 6 0
14 14 0
14 15 0
16 14 0
16 15 0
14 12 0
14 13 0
15 12 0
15 13 0
15 12 0
15 13 0
16 12 0
16 13 0
14 13 0
14 14 0
15 13 0
15 14 0
15 13 0
15 14 0
16 13 0
16 14 0
14 10 0
14 11 0
15 10 0
15 11 0
14 11 0
14 12 0
15 11 0
15 12 0
15 11 0
15 12 0
16 11 0
16 12 0
15 10 0
15 11 0
16 10 0
16 11 0
14 8 0
14 9 0
15 8 0
15 9 0
14 9 0
14 10 0
15 9 0
15 10 0
15 9 0
15 10 0
16 9 0
16 10 0
15 8 0
15 9 0
16 8 0
16 9 0
14 6 0
14 7 0
15 6 0
15 7 0
14 7 0
14 8 0
15 7 0
15 8 0
15 7 0
15 8 0
16 7 0
16 8 0
15 6 0
15 7 0
16 6 0
16 7 0
14 4 0
14 5 0
15 4 0
15 5 0
14 5 0
14 6 0
15 5 0
15 6 0
15 5 0
15 6 0
16 5 0
16 6 0
15 4 0
15 5 0
16 4 0
16 5 0
12 12 0
12 13 0
13 12 0
13 13 0
12 13 0
12 14 0
13 13 0
13 14 0
13 13 0
13 14 0
14 13 0
14 14 0
13 12 0
13 13 0
14 12 0
14 13 0
12 10 0
12 11 0
13 10 0
13 11 0
12 11 0
12 12 0
13 11 0
13 12 0
13 11 0
13 12 0
14 11 0
14 12 0
13 10 0
13 11 0
14 10 0
14 11 0
12 8 0
12 9 0
13 8 0
13 9 0
12 9 0
12 10 0
13 9 0
13 10 0
13 9 0
13 10 0
14 9 0
14 10 0
13 8 0
13 9 0
14 8 0
14 9 0
12 6 0
12 7 0
13 6 0
13 7 0
12 7 0
12 8 0
13 7 0
13 8 0
13 7 0
13 8 0
14 7 0
14 8 0
13 6 0
13 7 0
14 6 0
14 7 0
12 4 0
12 5 0
13 4 0
13 5 0
12 5 0
12 6 0
13 5 0
13 6 0
13 5 0
13 6 0
14 5 0
14 6 0
13 4 0
13 5 0
14 4 0
14 5 0
11 12 0
11 13 0
12 12 0
12 13 0
10 10 0
10 11 0
11 10 0
11 11 0
10 11 0
10 12 0
11 11 0
11 12 0
11 11 0
11 12 0
12 11 0
12 12 0
11 10 0
11 11 0
12 10 0
12 11 0
10 8 0
10 9 0
11 8 0
11 9 0
10 9 0
10 10 0
11 9 0
11 10 0
11 9 0
11 10 0
12 9 0
12 10 0
11 8 0
11 9 0
12 8 0
12 9 0
10 6 0
10 7 0
11 6 0
11 7 0
10 7 0
10 8 0
11 7 0
11 8 0
11 7 0
11 8 0
12 7 0
12 8 0
11 6 0
11 7 0
12 6 0
12 7 0
10 5 0
10 6 0
11 5 0
11 6 0
11 5 0
11 6 0
12 5 0
12 6 0
9 10 0
9 11 0
10 10 0
10 11 0
8 8 0
8 9 0
9 8 0
9 9 0
8 9 0
8 10 0
9 9 0
9 10 0
9 9 0
9 10 0
10 9 0
10 10 0
9 8 0
9 9 0
10 8 0
10 9 0
8 6 0
8 7 0
9 6 0
9 7 0
8 7 0
8 8 0
9 7 0
9 8 0
9 7 0
9 8 0
10 7 0
10 8 0
9 6 0
9 7 0
10 6 0
10 7 0
8 5 0
8 6 0
9 5 0
9 6 0
9 5 0
9 6 0
10 5 0
10 6 0
7 8 0
7 9 0
8 8 0
8 9 0
7 7 0
7 8 0
8 7 0
8 8 0
7 6 0
7 7 0
8 6 0
8 7 0
14 16 0
14 17 0
16 16 0
16 17 0
14 17 0
14 18 0
16 17 0
16 18 0
14 18 0
14 19 0
16 18 0
16 19 0
14 19 0
14 20 0
16 19 0
16 20 0
14 20 0
14 21 0
16 20 0
16 21 0
14 21 0
14 22 0
16 21 0
16 22 0
14 22 0
14 23 0
16 22 0
16 23 0
14 23 0
14 24 0
16 23 0
16 24 0
16 16 0
16 17 0
18 16 0
18 17 0
16 17 0
16 18 0
18 17 0
18 18 0
16 18 0
16 19 0
18 18 0
18 19 0
16 19 0
16 20 0
18 19 0
18 20 0
16 20 0
16 21 0
18 20 0
18 21 0
16 21 0
16 22 0
18 21 0
18 22 0
16 22 0
16 23 0
18 22 0
18 23 0
18 18 0
18 20 0
20 18 0
20 20 0
18 20 0
18 22 0
20 20 0
20 22 0
-2 17 0
-2 18 0
1.11022e-16 17 0
6.93889e-18 18 0
14 15 0
14 16 0
16 15 0
16 16 0
12 24 0
12 25 0
14 24 0
14 25 0
12 22 0
12 23 0
14 22 0
14 23 0
12 23 0
12 24 0
14 23 0
14 24 0
12 20 0
12 21 0
14 20 0
14 21 0
12 21 0
12 22 0
14 21 0
14 22 0
12 18 0
12 19 0
14 18 0
14 19 0
12 19 0
12 20 0
14 19 0
14 20 0
12 16 0
12 17 0
14 16 0
14 17 0
12 17 0
12 18 0
14 17 0
14 18 0
12 14 0
12 15 0
13 14 0
13 15 0
13 14 0
13 15 0
14 14 0
14 15 0
12 15 0
12 16 0
13 15 0
13 16 0
13 15 0
13 16 0
14 15 0
14 16 0
2.77556e-17 15 0
6.93889e-18 16 0
1 15 0
1 16 0
1 15 0
1 16 0
2 15 0
2 16 0
1 14 0
1 15 0
2 14 0
2 15 0
0 16 0
4.85723e-17 17 0
1 16 0
1 17 0
1 16 0
1 17 0
2 16 0
2 17 0
6.93889e-17 17 0
3.46945e-17 18 0
1 17 0
1 18 0
1 17 0
1 18 0
2 17 0
2 18 0
4.16334e-17 18 0
1.73472e-17 19 0
2 18 0
2 19 0
10 24 0
10 25 0
11 24 0
11 25 0
10 25 0
10 26 0
11 25 0
11 26 0
11 24 0
11 25 0
12 24 0
12 25 0
10 22 0
10 23 0
11 22 0
11 23 0
10 23 0
10 24 0
11 23 0
11 24 0
11 23 0
11 24 0
12 23 0
12 24 0
11 22 0
11 23 0
12 22 0
12 23 0
10 20 0
10 21 0
11 20 0
11 21 0
10 21 0
10 22 0
11 21 0
11 22 0
11 21 0
11 22 0
12 21 0
12 22 0
11 20 0
11 21 0
12 20 0
12 21 0
10 18 0
10 19 0
11 18 0
11 19 0
10 19 0
10 20 0
11 19 0
11 20 0
11 19 0
11 20 0
12 19 0
12 20 0
11 18 0
11 19 0
12 18 0
12 19 0
10 16 0
10 17 0
11 16 0
11 17 0
10 17 0
10 18 0
11 17 0
11 18 0
11 17 0
11 18 0
12 17 0
12 18 0
11 16 0
11 17 0
12 16 0
12 17 0
10 14 0
10 15 0
11 14 0
11 15 0
10 15 0
10 16 0
11 15 0
11 16 0
11 15 0
11 16 0
12 15 0
12 16 0
11 14 0
11 15 0
12 14 0
12 15 0
10 12 0
10 13 0
11 12 0
11 13 0
10 13 0
10 14 0
11 13 0
11 14 0
11 13 0
11 14 0
12 13 0
12 14 0
2 13 0
2 14 0
3 13 0
3 14 0
3 13 0
3 14 0
4 13 0
4 14 0
3 12 0
3 13 0
4 12 0
4 13 0
2 14 0
2 15 0
3 14 0
3 15 0
2 15 0
2 16 0
3 15 0
3 16 0
3 15 0
3 16 0
4 15 0
4 16 0
3 14 0
3 15 0
4 14 0
4 15 0
2 16 0
2 17 0
3 16 0
3 17 0
2 17 0
2 18 0
3 17 0
3 18 0
3 17 0
3 18 0
4 17 0
4 18 0
3 16 0
3 17 0
4 16 0
4 17 0
2 18 0
2 19 0
3 18 0
3 19 0
3 18 0
3 19 0
4 18 0
4 19 0
2 19 0
2 20 0
3 19 0
3 20 0
3 19 0
3 20 0
4 19 0
4 20 0
9 24 0
9 25 0
10 24 0
10 25 0
8 22 0
8 23 0
9 22 0
9 23 0
8 23 0
8 24 0
9 23 0
9 24 0
9 23 0
9 24 0
10 23 0
10 24 0
9 22 0
9 23 0
10 22 0
10 23 0
8 20 0
8 21 0
9 20 0
9 21 0
8 21 0
8 22 0
9 21 0
9 22 0
9 21 0
9 22 0
10 21 0
10 22 0
9 20 0
9 21 0
10 20 0
10 21 0
8 18 0
8 19 0
9 18 0
9 19 0
8 19 0
8 20 0
9 19 0
9 20 0
9 19 0
9 20 0
10 19 0
10 20 0
9 18 0
9 19 0
10 18 0
10 19 0
8 16 0
8 17 0
9 16 0
9 17 0
8 17 0
8 18 0
9 17 0
9 18 0
9 17 0
9 18 0
10 17 0
10 18 0
9 16 0
9 17 0
10 16 0
10 17 0
8 14 0
8 15 0
9 14 0
9 15 0
8 15 0
8 16 0
9 15 0
9 16 0
9 15 0
9 16 0
10 15 0
10 16 0
9 14 0
9 15 0
10 14 0
10 15 0
8 12 0
8 13 0
9 12 0
9 13 0
8 13 0
8 14 0
9 13 0
9 14 0
9 13 0
9 14 0
10 13 0
10 14 0
9 12 0
9 13 0
10 12 0
10 13 0
8 10 0
8 11 0
9 10 0
9 11 0
8 11 0
8 12 0
9 11 0
9 12 0
9 11 0
9 12 0
10 11 0
10 12 0
4 11 0
4 12 0
5 11 0
5 12 0
5 11 0
5 12 0
6 11 0
6 12 0
5 10 0
5 11 0
6 10 0
6 11 0
4 12 0
4 13 0
5 12 0
5 13 0
4 13 0
4 14 0
5 13 0
5 14 0
5 13 0
5 14 0
6 13 0
6 14 0
5 12 0
5 13 0
6 12 0
6 13 0
4 14 0
4 15 0
5 14 0
5 15 0
4 15 0
4 16 0
5 15 0
5 16 0
5 15 0
5 16 0
6 15 0
6 16 0
5 14 0
5 15 0
6 14 0
6 15 0
4 16 0
4 17 0
5 16 0
5 17 0
4 17 0
4 18 0
5 17 0
5 18 0
5 17 0
5 18 0
6 17 0
6 18 0
5 16 0
5 17 0
6 16 0
6 17 0
4 18 0
4 19 0
5 18 0
5 19 0
5 18 0
5 19 0
6 18 0
6 19 0
4 19 0
4 20 0
5 19 0
5 20 0
5 19 0
5 20 0
6 19 0
6 20 0
4 20 0
4 21 0
6 20 0
6 21 0
7 22 0
7 23 0
8 22 0
8 23 0
6 20 0
6 21 0
7 20 0
7 21 0
6 21 0
6 22 0
7 21 0
7 22 0
7 21 0
7 22 0
8 21 0
8 22 0
7 20 0
7 21 0
8 20 0
8 21 0
6 18 0
6 19 0
7 18 0
7 19 0
6 19 0
6 20 0
7 19 0
7 20 0
7 19 0
7 20 0
8 19 0
8 20 0
7 18 0
7 19 0
8 18 0
8 19 0
6 16 0
6 17 0
7 16 0
7 17 0
6 17 0
6 18 0
7 17 0
7 18 0
7 17 0
7 18 0
8 17 0
8 18 0
7 16 0
7 17 0
8 16 0
8 17 0
6 14 0
6 15 0
7 14 0
7 15 0
6 15 0
6 16 0
7 15 0
7 16 0
7 15 0
7 16 0
8 15 0
8 16 0
7 14 0
7 15 0
8 14 0
8 15 0
6 12 0
6 13 0
7 12 0
7 13 0
6 13 0
6 14 0
7 13 0
7 14 0
7 13 0
7 14 0
8 13 0
8 14 0
7 12 0
7 13 0
8 12 0
8 13 0
6 10 0
6 11 0
7 10 0
7 11 0
6 11 0
6 12 0
7 11 0
7 12 0
7 11 0
7 12 0
8 11 0
8 12 0
7 10 0
7 11 0
8 10 0
8 11 0
6 9 0
6 10 0
7 9 0
7 10 0
7 9 0
7 10 0
8 9 0
8 10 0
-18 -4 0
-18 -2 0
-14.1667 -4 0
-14.1667 -2 0
-18 -2 0
-18 0 0
-14.1667 -2 0
-14.1667 0 0
-18 0 0
-18 2 0
-14.1667 0 0
-14.1667 2 0
-18 2 0
-18 4 0
-14.1667 2 0
-14.1667 4 0
-18 4 0
-18 6 0
-14.1667 4 0
-14.1667 6 0
-18 6 0
-18 8 0
-14.1667 6 0
-14.1667 8 0
-18 8 0
-18 10 0
-14.1667 8 0
-14.1667 10 0
-18 10 0
-18 12 0
-14.1667 10 0
-14.1667 12 0
-18 12 0
-18 14 0
-14.1667 12 0
-14.1667 14 0
-18 14 0
-18 16 0
-14.1667 14 0
-14.1667 16 0
-18 16 0
-18 18 0
-14.1667 16 0
-14.1667 18 0
-18 18 0
-18 20 0
-14.1667 18 0
-14.1667 20 0
-14.1667 -4 0
[...]
POINT_DATA 10348
SCALARS phi float 1
LOOKUP_TABLE default
0.999803
0.999416
1.00017
0.999616
0.999416
1.00017
0.999616
1.00027
1.00017
0.999616
1.00016
0.999764
0.999616
1.00027
0.999764
1
1.00027
0.999675
1
1.00003
1.00016
1
0.999388
0.999811
1
1.00003
0.999811
1.00024
1.00003
0.999976
1.00024
1.00001
0.999388
0.999811
1.00061
0.999677
0.999811
1.00024
0.999677
0.99993
1.00024
1.00001
0.99993
0.999759
1.00061
0.999677
1.00093
1.00007
0.999677
0.99993
1.00007
1.00044
0.99993
0.999759
1.00044
1.00034
1.00425
1.00164
1.00677
1.00446
1.00677
1.00446
1.00818
1.00581
1.00164
1.00061
1.00446
1.00076
1.00446
1.00076
1.00581
1.00093
0.868392
0.989779
0.870659
0.98539
0.989779
1.00425
0.98539
1.00677
0.98539
1.00677
0.979647
1.00818
0.870659
0.98539
0.886625
0.979648
0.013921
0.22917
0.010816
0.238973
0.22917
0.868392
0.238973
0.870659
0.238973
0.870659
0.265775
0.886625
1.00457
0.99797
1.00425
1.00164
0.99797
0.999388
1.00164
1.00061
0.897749
0.986836
0.875351
0.985682
0.875351
0.985682
0.868392
0.989779
0.986836
1.00457
0.985682
1.00441
0.985682
1.00441
0.989779
1.00425
0.0212148
0.295164
0.0111482
0.240806
0.295164
0.897749
0.240806
0.875351
0.240806
0.875351
0.22917
0.868392
0.0111482
0.240806
0.013921
0.22917
0.00504983
0.0212148
0.00146066
0.0111482
0.999002
1.00048
1.00457
0.99797
1.00048
1.00016
0.99797
0.999388
0.985896
1.00019
0.959505
0.995786
0.959505
0.995786
0.897749
0.986836
1.00019
0.999002
0.995786
1.00186
0.995786
1.00186
0.986836
1.00457
0.463643
0.914698
0.107997
0.601635
0.914698
0.985896
0.601635
0.959505
0.601635
0.959505
0.295164
0.897749
0.107997
0.601635
0.0212148
0.295164
0.0112465
0.0539185
-0.00209809
0.0181356
0.0539185
0.463643
0.0181356
0.107997
0.0181357
0.107997
0.00504983
0.0212148
-0.00209809
0.0181356
-0.00163163
0.00504983
0.998078
0.999547
0.998547
1.00076
0.998547
1.00076
0.999002
1.00048
0.999547
1.00017
1.00076
1.00018
1.00076
1.00018
1.00048
1.00016
0.986846
1.0027
0.992392
1.00305
1.0027
0.998078
1.00305
0.998547
1.00305
0.998547
1.00019
0.999002
0.992392
1.00305
0.985896
1.00019
0.506108
0.93798
0.663562
0.971645
0.93798
0.986846
0.971646
0.992392
0.971646
0.992392
0.914698
0.985896
0.663562
0.971645
0.463643
0.914698
0.0134548
0.0606883
0.0155405
0.0994515
0.0606883
0.506108
0.0994515
0.663562
0.0994515
0.663562
0.0539185
0.463643
0.0155405
0.0994515
0.0112465
0.0539185
-0.003728
0.0134548
-0.00397879
0.0155405
-0.00397879
0.0155405
-0.00328531
0.0112465
0.994523
0.999742
0.998298
0.99961
0.998298
0.99961
0.998078
0.999547
0.999742
0.999803
0.99961
1.00044
0.99961
1.00044
0.999547
1.00017
0.817983
0.964618
0.969362
0.995288
0.964618
0.994523
0.995288
0.998298
0.995288
0.998298
1.0027
0.998078
0.969362
0.995288
0.986846
1.0027
0.0692789
0.39326
0.254146
0.805791
0.39326
0.817983
0.805791
0.969362
0.805791
0.969362
0.93798
0.986846
0.254146
0.805791
0.506108
0.93798
-4.4805e-05
0.0140976
0.0034136
0.0290564
0.0140976
0.0692789
0.0290564
0.254146
0.0290564
0.254146
0.0606883
0.506108
0.0034136
0.0290564
0.0134548
0.0606883
0.00106389
-4.48051e-05
-0.000122234
0.0034136
-0.000122234
0.0034136
-0.003728
0.0134548
0.998491
1.00057
0.999803
0.999416
0.966441
0.996371
0.980491
0.996615
0.980491
0.996615
0.994523
0.999742
0.996371
0.998491
0.996615
0.997802
0.996615
0.997802
0.999742
0.999803
0.15658
0.721872
0.327002
0.8449
0.721872
0.966441
0.8449
0.980491
0.8449
0.980491
0.964618
0.994523
0.327002
0.8449
0.817983
0.964618
0.00467832
0.0292271
0.0112052
0.0554528
0.0292271
0.15658
0.0554528
0.327002
0.0554528
0.327002
0.39326
0.817983
0.0112052
0.0554528
0.0692789
0.39326
0.000911697
0.00948288
-0.000148917
-0.00281424
0.00948288
0.00467832
-0.00281424
0.0112052
-0.00281424
0.0112052
0.0140976
0.0692789
-0.000148916
-0.00281424
-4.48049e-05
0.0140976
-0.000266681
0.000860019
0.000317441
-0.000442712
0.000860019
0.000911697
-0.000442712
-0.000148917
-0.000442712
-0.000148916
0.00106389
-4.4805e-05
0.000317441
-0.000442712
-0.000400103
0.00106389
0.758705
0.915524
0.92142
0.97991
0.915524
0.961366
0.97991
0.9965
0.97991
0.9965
0.996371
0.998491
0.92142
0.97991
0.966441
0.996371
0.510117
0.624065
0.281978
0.727126
0.624065
0.758705
0.727126
0.92142
0.727126
0.92142
0.721872
0.966441
0.281978
0.727126
0.15658
0.721872
0.542131
0.509287
0.121015
0.133445
0.509287
0.510117
0.133445
0.281978
0.133445
0.281978
0.0292271
0.15658
0.121015
0.133445
0.00467832
0.0292271
0.116705
0.396811
0.009603
0.0496981
0.396811
0.542131
0.0496981
0.121015
0.0496981
0.121015
0.00948288
0.00467832
0.00960301
0.0496981
0.000911698
0.00948288
-0.000434899
0.0157851
4.42001e-05
0.000909964
0.0157851
0.116705
0.000909964
0.009603
0.000909964
0.009603
0.000860019
0.000911697
4.42001e-05
0.000909964
-0.000266681
0.000860019
0.565487
0.73271
0.758705
0.915524
0.561979
0.557472
0.576342
0.513099
0.557472
0.501127
0.513099
0.565487
0.513099
0.565487
0.624065
0.758705
0.576342
0.513099
0.510117
0.624065
0.714919
0.625417
0.726295
0.683759
0.625417
0.561979
0.683759
0.576342
0.683759
0.576342
0.509287
0.510117
0.726295
0.683759
0.542131
0.509287
0.404929
0.770771
0.314254
0.693606
0.770771
0.714919
0.693606
0.726295
0.693606
0.726295
0.396811
0.542131
0.314254
0.693606
0.116705
0.396811
0.054442
0.404929
0.03813
0.314254
0.03813
0.314254
0.0157851
0.116705
0.619012
0.642525
0.561979
0.557472
0.443742
0.540524
0.61568
0.584844
0.540524
0.652152
0.584844
0.619012
0.584844
0.619012
0.625417
0.561979
0.61568
0.584844
0.714919
0.625417
0.0329552
0.236272
0.246819
0.610759
0.236272
0.443742
0.610759
0.61568
0.610759
0.61568
0.770771
0.714919
0.246819
0.610759
0.404929
0.770771
0.00729165
0.0329552
0.0274934
0.246819
0.0274934
0.246819
0.054442
0.404929
0.487128
0.561638
0.443742
0.540524
0.0581889
0.487128
0.236272
0.443742
0.0237403
0.0581889
0.0329552
0.236272
1.0001
0.998965
1.00017
1.00005
0.998965
0.999321
1.00005
1.00047
0.999321
0.999893
1.00047
1.00025
0.999893
0.999878
1.00025
0.999924
0.999878
0.999212
0.999924
1.00025
0.999212
0.99879
1.00025
1.00086
0.99879
0.998758
1.00086
1.0009
0.998758
0.998908
1.0009
1.0007
1.00017
1.00005
1.00027
1.00015
1.00005
1.00047
1.00015
0.999675
1.00047
1.00025
0.999675
0.99982
1.00025
0.999924
0.99982
1.00009
0.999924
1.00025
1.00009
0.999871
1.00025
1.00086
0.999871
0.999513
1.00086
1.0009
0.999513
0.99946
0.999675
1.00009
1.00003
0.999976
1.00009
0.999513
0.999976
1.00018
1.89596e-05
2.24528e-05
0.000420324
0.000396913
1.00057
1.0001
0.999416
1.00017
0.998206
0.998319
0.998908
0.99878
0.99851
0.998362
0.99879
0.998758
0.998362
0.998206
0.998758
0.998908
0.999771
0.999078
0.999878
0.999212
0.999078
0.99851
0.999212
0.99879
0.999528
1.00013
0.999321
0.999893
1.00013
0.999771
0.999893
0.999878
0.995815
0.998227
1.0001
0.998965
0.998227
0.999528
0.998965
0.999321
0.961366
0.985774
0.9965
0.993562
0.9965
0.993562
0.998491
1.00057
0.985774
0.995815
0.993562
0.998058
0.993562
0.998058
1.00057
1.0001
-0.000333188
9.7322e-05
-0.000340124
0.000386156
-0.000340124
0.000386156
-0.000337528
0.000428663
0.000712724
-0.000340124
0.00103822
-0.000337528
9.7322e-05
0.000420324
0.000386156
5.31722e-05
0.000386156
5.31722e-05
0.000428663
0.000510832
0.000420324
0.000396913
5.31722e-05
-0.000162208
5.31722e-05
-0.000162208
0.000510832
0.000389646
0.000396913
0.000452339
0.000389646
-0.000395668
0.931182
0.927148
0.990711
0.990678
0.927148
0.931095
0.990678
0.990739
0.990711
0.990678
0.998206
0.998319
0.949687
0.933564
0.991523
0.990878
0.933564
0.931182
0.990878
0.990711
0.990878
0.990711
0.998362
0.998206
0.991523
0.990878
0.99851
0.998362
0.987103
0.976632
0.998552
0.994573
0.976632
0.949687
0.994573
0.991523
0.994573
0.991523
0.999078
0.99851
0.998552
0.994573
0.999771
0.999078
0.980799
0.988598
0.99639
0.999391
0.988598
0.987103
0.999391
0.998552
0.999391
0.998552
1.00013
0.999771
0.99639
0.999391
0.999528
1.00013
0.734706
0.925886
0.969695
0.98849
0.925886
0.980799
0.98849
0.99639
0.98849
0.99639
0.998227
0.999528
0.969695
0.98849
0.995815
0.998227
0.345566
0.415988
0.81724
0.891487
0.415988
0.734706
0.891487
0.969695
0.891487
0.969695
0.985774
0.995815
0.81724
0.891487
0.961366
0.985774
0.501127
0.452175
0.565487
0.73271
0.452175
0.345566
0.73271
0.81724
0.73271
0.81724
0.915524
0.961366
1.19753e-06
0.00103822
0.00106116
-0.000425251
0.00106116
-0.000425251
0.0174847
-0.007727
-0.000335265
0.00106116
0.00145373
0.0174847
0.00103822
-0.000337528
-0.000425251
0.000474312
-0.000337528
0.000428663
0.000474312
-7.87456e-05
0.000474312
-7.87455e-05
0.00462415
-0.00215856
-0.000425251
0.000474312
-0.007727
0.00462415
0.000428663
0.000510832
-7.87456e-05
0.00190473
0.000510832
0.000389646
0.00190473
0.00183404
0.00190473
0.00183404
0.00114779
-0.000790407
-7.87456e-05
0.00190473
-0.00215856
0.00114779
0.000389646
-0.000395668
0.00183404
0.00123865
0.00183404
0.00123865
-0.000790407
0.000891537
-0.000395668
-0.000846701
0.00123865
0.0011222
0.00123865
0.0011222
0.000891537
0.00107169
0.385056
0.37688
0.931182
0.927148
0.0383225
0.0255542
0.466369
0.399029
0.0255542
0.0241799
0.399029
0.385056
0.399029
0.385056
0.933564
0.931182
0.466369
0.399029
0.949687
0.933564
0.135429
0.0780305
0.760153
0.632218
0.0780305
0.0383225
0.632218
0.466369
0.632218
0.466369
0.976632
0.949687
0.760153
0.632218
0.987103
0.976632
0.102979
0.156377
0.690787
0.793588
0.156377
0.135429
0.793588
0.760153
0.793588
0.760153
0.988598
0.987103
0.690787
0.793588
0.980799
0.988598
0.0179542
0.0357868
0.169397
0.429133
0.0357868
0.102979
0.429133
0.690787
0.429133
0.690787
0.925886
0.980799
0.169397
0.429133
0.734706
0.925886
0.0138988
0.00858514
0.062929
0.0503991
0.00858514
0.0179542
0.0503991
0.169397
0.0503991
0.169397
0.415988
0.734706
0.062929
0.0503991
0.345566
0.415988
0.320189
0.050305
0.372893
0.155283
0.050305
0.0138988
0.155283
0.062929
0.155283
0.062929
0.452175
0.345566
0.372893
0.155283
0.501127
0.452175
0.652152
0.683834
0.619012
0.642525
0.683834
0.320189
0.642525
0.372893
0.642525
0.372893
0.557472
0.501127
0.151728
0.00145373
0.455996
0.0914777
0.455996
0.0914777
0.564236
0.380972
0.478384
0.455996
0.556785
0.564237
0.00145373
0.0174847
0.0914777
0.0438674
0.0174847
-0.007727
0.0438674
-0.0154593
0.0438674
-0.0154593
0.0318648
0.0029436
0.0914777
0.0438674
0.380972
0.0318648
-0.007727
0.00462415
-0.0154593
0.00665312
0.00462415
-0.00215856
0.00665312
-0.00482474
0.00665312
-0.00482474
-0.00113719
0.00141399
-0.0154593
0.00665312
0.0029436
-0.00113719
-0.00215856
0.00114779
-0.00482474
-0.000436339
0.00114779
-0.000790407
-0.00043634
-0.0028719
-0.000436339
-0.0028719
-0.00581688
-0.00568088
-0.00482474
-0.000436339
0.00141399
-0.00581687
-0.000790407
0.000891537
-0.0028719
-0.00174978
-0.0028719
-0.00174978
-0.00568088
-0.000735778
0.000891537
0.00107169
-0.00174978
-0.00304544
-0.00174978
-0.00304544
-0.000735778
0.000927389
0.00107169
0.00179052
0.000927389
0.00131639
0.00742942
0.00610437
0.0383225
0.0255542
0.000927389
0.00131639
0.00989104
0.00931091
0.00131639
0.000935495
0.0093109
0.00742943
0.00931091
0.00742943
0.0780305
0.0383225
0.00989104
0.00931091
0.135429
0.0780305
-0.00568088
-0.000735778
0.0120257
0.00964923
-0.000735777
0.000927389
0.00964923
0.00989104
0.00964923
0.00989104
0.156377
0.135429
0.0120257
0.00964923
0.102979
0.156377
0.00141399
-0.00581688
0.00190759
0.00605838
-0.00581688
-0.00568088
0.00605838
0.0120257
0.00605838
0.0120257
0.0357868
0.102979
0.00190759
0.00605838
0.0179542
0.0357868
0.00294361
-0.00113719
0.00805321
-0.00741114
-0.00113719
0.00141399
-0.00741114
0.00190759
-0.00741114
0.00190759
0.00858514
0.0179542
0.00805321
-0.00741114
0.0138988
0.00858514
0.380972
0.0318648
0.458854
0.0369488
0.0318648
0.0029436
0.0369488
0.00805321
0.0369488
0.00805321
0.050305
0.0138988
0.458853
0.0369488
0.320189
0.050305
0.556785
0.564237
0.616917
0.610441
0.564236
0.380972
0.610441
0.458854
0.610441
0.458853
0.683834
0.320189
0.616917
0.610441
0.652152
0.683834
0.534928
0.556785
0.561638
0.616917
0.561638
0.616917
0.540524
0.652152
-1.58985e-07
3.1276e-07
-2.35912e-07
4.6065e-07
3.1276e-07
-7.21199e-07
4.6065e-07
-1.01286e-06
-7.21199e-07
1.29497e-06
-1.01286e-06
2.08406e-06
1.29497e-06
1.42765e-06
2.08406e-06
1.30447e-06
1.42765e-06
-1.74291e-06
1.30447e-06
-6.19463e-07
-1.74291e-06
-7.60369e-06
-6.19463e-07
-9.66765e-06
-7.60369e-06
-8.9827e-07
-9.66765e-06
3.22756e-06
-8.9827e-07
-6.27651e-06
3.22756e-06
-9.76344e-06
-6.27651e-06
2.40189e-06
-9.76344e-06
3.38391e-06
2.40189e-06
-1.09739e-06
3.38391e-06
-1.2382e-06
-1.09739e-06
-1.58786e-07
-1.2382e-06
2.23652e-06
-1.58786e-07
-3.66947e-06
2.23652e-06
-6.75462e-07
-2.35912e-07
4.6065e-07
1.54967e-07
-3.05141e-07
4.6065e-07
-1.01286e-06
-3.05142e-07
7.53426e-07
-1.01286e-06
2.08406e-06
7.53426e-07
-1.02014e-06
2.08406e-06
1.30447e-06
-1.02014e-06
-2.29833e-06
1.30447e-06
-6.19463e-07
-2.29833e-06
3.96826e-06
-6.19463e-07
-9.66765e-06
3.96826e-06
9.81902e-06
-9.66765e-06
3.22756e-06
9.81902e-06
8.22456e-06
3.22756e-06
-9.76344e-06
8.22456e-06
6.1041e-06
-9.76344e-06
3.38391e-06
6.1041e-06
-2.66813e-06
3.38391e-06
-1.2382e-06
-2.66813e-06
1.50958e-06
-1.2382e-06
2.23652e-06
1.50958e-06
2.99577e-06
2.23652e-06
-6.75462e-07
2.99577e-06
9.57149e-06
1.54967e-07
-3.05142e-07
-1.14474e-07
2.31711e-07
-3.05141e-07
7.53426e-07
2.31711e-07
-7.04839e-07
7.53426e-07
-1.02014e-06
-7.04838e-07
1.9084e-07
-1.02014e-06
-2.29833e-06
1.9084e-07
3.95251e-06
-2.29833e-06
3.96826e-06
3.95251e-06
-8.68253e-06
3.96826e-06
9.81902e-06
-8.68253e-06
-1.25646e-05
9.81902e-06
8.22456e-06
-1.25646e-05
-2.30122e-05
8.22456e-06
6.1041e-06
-2.30122e-05
-3.65107e-06
6.1041e-06
-2.66813e-06
-3.65107e-06
2.56125e-06
-2.66813e-06
1.50958e-06
2.56125e-06
-2.45726e-06
1.50958e-06
2.99577e-06
-2.45726e-06
-1.06475e-05
2.99577e-06
9.57149e-06
-1.06475e-05
-2.29244e-05
-1.14474e-07
2.31711e-07
1.14833e-07
-2.32559e-07
2.31711e-07
-7.04839e-07
-2.32559e-07
9.24202e-07
-7.04839e-07
1.9084e-07
9.24202e-07
5.47723e-07
1.9084e-07
3.95251e-06
5.47723e-07
-7.06183e-06
3.95251e-06
-8.68253e-06
-7.06183e-06
1.69029e-05
-8.68253e-06
-1.25646e-05
1.69029e-05
1.9871e-05
-1.25646e-05
-2.30122e-05
1.9871e-05
4.70536e-05
-2.30122e-05
-3.65107e-06
4.70536e-05
1.74696e-06
-3.65107e-06
2.56125e-06
1.74696e-06
-4.11061e-06
2.56125e-06
-2.45726e-06
-4.11061e-06
5.46604e-06
-2.45726e-06
-1.06475e-05
5.46604e-06
2.14838e-05
-1.06475e-05
-2.29244e-05
2.14838e-05
4.26546e-05
1.14833e-07
-2.32559e-07
-7.61808e-07
1.50965e-06
-2.32559e-07
9.24202e-07
1.50965e-06
-3.82471e-06
9.24202e-07
5.47723e-07
-3.82471e-06
4.66148e-06
5.47723e-07
-7.06183e-06
4.66148e-06
1.25722e-05
-7.06183e-06
1.69029e-05
1.25722e-05
-2.36449e-05
1.69029e-05
1.9871e-05
-2.36449e-05
-5.18576e-05
1.9871e-05
4.70536e-05
-5.18576e-05
-5.69573e-05
4.70536e-05
1.74696e-06
-5.69573e-05
-2.85671e-05
1.74696e-06
-4.11061e-06
-2.85671e-05
1.35982e-05
-4.1106e-06
5.46604e-06
1.35982e-05
-9.87798e-06
5.46604e-06
2.14838e-05
-9.87799e-06
-2.70369e-05
2.14838e-05
4.26546e-05
-2.70369e-05
-6.50667e-05
1.50965e-06
-3.82471e-06
-3.11177e-06
7.70407e-06
-3.82471e-06
4.66148e-06
7.70407e-06
-9.993e-06
4.66148e-06
1.25722e-05
-9.993e-06
-2.19828e-05
1.25722e-05
-2.36449e-05
-2.19828e-05
4.09613e-05
-2.36449e-05
-5.18576e-05
4.09613e-05
9.84445e-05
-5.18576e-05
-5.69573e-05
9.84445e-05
0.00011307
-5.69573e-05
-2.85671e-05
0.00011307
0.00014147
-2.85671e-05
-2.50482e-06
0.00014147
6.85039e-05
-2.50482e-06
1.35983e-05
6.85039e-05
2.60656e-05
1.35983e-05
6.22058e-06
2.60656e-05
-6.61029e-05
6.22058e-06
-9.87799e-06
-6.61029e-05
-9.09858e-06
-9.87799e-06
-1.86323e-05
-9.09858e-06
3.83058e-05
-1.86323e-05
-2.70369e-05
3.83058e-05
6.86499e-05
-3.11177e-06
7.70407e-06
1.79275e-05
-3.31886e-05
7.70407e-06
-9.993e-06
-3.31886e-05
3.91378e-05
-9.993e-06
-2.28241e-05
3.91378e-05
-3.81838e-05
-2.28241e-05
-2.19828e-05
-3.81838e-05
0.000151375
-2.19828e-05
2.88868e-06
0.000151375
-1.43918e-05
2.88868e-06
4.09613e-05
-1.43918e-05
-0.000131509
4.09613e-05
7.6889e-05
-0.000131509
-0.000210949
7.6889e-05
9.84445e-05
-0.000210949
3.06656e-05
9.84445e-05
0.000101732
3.06657e-05
-0.000773098
0.000101732
0.00011307
-0.000773098
0.00014351
0.00011307
0.00014709
0.00014351
0.00029309
0.00014709
0.00014147
0.00029309
0.000103283
0.00014147
6.85039e-05
0.000103283
6.89101e-05
6.85039e-05
2.60656e-05
6.89101e-05
0.000230073
2.60656e-05
-6.61029e-05
0.000230073
-0.000225102
-6.61029e-05
-9.09858e-06
-0.000225102
-0.000184693
-9.09858e-06
3.83058e-05
-0.000184693
1.89596e-05
3.83058e-05
6.86499e-05
1.89596e-05
2.24528e-05
1.79275e-05
-3.31886e-05
1.58948e-05
-2.35668e-05
-3.31886e-05
3.91378e-05
-2.35668e-05
1.50645e-05
3.91378e-05
-3.81838e-05
1.50645e-05
-0.000201914
-3.81838e-05
0.000151375
-0.000201914
0.000150811
0.000151375
-1.43918e-05
0.000150811
2.51821e-05
-1.43918e-05
-0.000131509
2.51821e-05
0.000127333
-0.000131509
-0.000210949
0.000127333
-6.86966e-05
-0.000210949
3.06657e-05
-6.86966e-05
0.000155776
3.06657e-05
-0.000773097
0.000155776
-0.000708133
-0.000773097
0.00014351
-0.000708133
0.000626692
0.00014351
0.00029309
0.000626692
0.0010027
0.00029309
0.000103283
0.0010027
1.07682e-06
-2.35668e-05
7.95979e-05
-2.23288e-05
-0.000476226
7.95979e-05
1.50645e-05
-0.000476226
3.65186e-05
0.000103283
6.89101e-05
1.07681e-06
-0.000286899
6.89101e-05
0.000230073
-0.000286899
0.000110961
0.000230073
-0.000225102
0.000110961
-0.000333188
-0.000225102
-0.000184693
-0.000333188
9.7322e-05
-0.000184693
1.89596e-05
9.7322e-05
0.000420324
1.50645e-05
-0.000201914
3.65186e-05
0.000292097
-0.000201914
0.000150811
0.000292097
-0.000220897
0.000150811
2.51821e-05
-0.000220897
0.000292753
2.5182e-05
0.000127333
0.000292753
-0.000361967
0.000127333
-6.86966e-05
-0.000361967
0.00069242
-6.86966e-05
0.000155776
0.00069242
0.000585099
0.000155776
-0.000708133
0.000585098
0.00463639
-0.000708133
0.000626692
0.00463639
0.00232607
0.000626692
0.0010027
0.00232607
0.000136533
0.0010027
1.07683e-06
0.000136534
0.000194293
1.07681e-06
-0.000286899
-3.32186e-05
0.000159935
-3.32186e-05
0.000159935
0.000194293
1.19756e-06
-0.000286899
0.000110961
0.000159935
0.000712724
0.000159935
0.000712724
1.19758e-06
0.00103822
0.000110961
-0.000333188
0.000712724
-0.000340124
3.65186e-05
0.000292097
0.000147561
-0.00124469
0.000147561
-0.00124469
0.000314939
-0.00135685
0.000292097
-0.000220897
-0.00124469
0.00029678
-0.00124469
0.00029678
-0.00135685
0.00192232
-0.000220897
0.000292753
0.00029678
-0.000118559
0.000292753
-0.000361967
-0.000118559
0.000318431
-0.000118559
0.000318431
-0.00401436
0.00753098
0.00029678
-0.000118559
0.00192232
-0.00401436
-0.000361967
0.00069242
0.000318431
0.00122954
0.00069242
0.000585098
0.00122954
0.0202999
0.00122954
0.0202999
-0.00839639
0.121787
0.000318431
0.00122954
0.00753098
-0.00839639
0.000585098
0.00463639
0.0202999
0.0313856
0.00463639
0.00232607
0.0313856
0.016929
0.0313856
0.016929
0.200287
0.117757
0.0202999
0.0313856
0.121787
0.200287
0.00232607
0.000136534
0.016929
0.0196318
0.000136534
0.000194293
0.0196318
-0.000335265
0.0196318
-0.000335265
0.151728
0.00145373
0.016929
0.0196318
0.117757
0.151728
0.000194293
1.19759e-06
-0.000335265
0.00106116
-0.00135685
0.00192232
0.000320826
0.00202565
0.000320826
0.00202565
-0.000966518
-0.000375429
0.00192232
-0.00401435
0.00202565
-0.0056776
-0.00401436
0.00753098
-0.0056776
0.0103772
-0.0056776
0.0103772
0.00152875
-0.00458652
0.00202565
-0.0056776
-0.000375429
0.00152875
0.00753098
-0.00839639
0.0103772
0.0263011
-0.00839639
0.121787
0.0263011
0.401491
0.0263011
0.401491
0.115631
0.526088
0.0103772
0.0263011
-0.00458652
0.115631
0.121787
0.200287
0.401491
0.51345
0.200287
0.117757
0.51345
0.478384
0.51345
0.478384
0.534929
0.556785
0.401491
0.51345
0.526088
0.534928
0.117757
0.151728
0.478384
0.455996
0.526088
0.534928
0.487128
0.561638
-0.00458651
0.115631
0.0237403
0.0581889
0.115631
0.526088
0.0581889
0.487128
-0.000375429
0.00152875
0.00367628
-0.00808302
0.00152875
-0.00458652
-0.00808301
0.0237403
9.65986e-09
9.70917e-09
1.56844e-08
1.79714e-08
9.70917e-09
-1.49107e-08
1.79714e-08
-2.17425e-08
-1.49107e-08
2.47376e-08
-2.17425e-08
3.25789e-08
2.47376e-08
-4.43709e-08
3.25789e-08
-5.65049e-08
-4.43709e-08