# vtk DataFile Version 2.0
Hex test
ASCII
DATASET UNSTRUCTURED_GRID
POINTS 8960 float
24 28 0
24 30 0
26 28 0
26 30 0
24 30 0
24 32 0
26 30 0
26 32 0
26 24 0
26 26 0
28 24 0
28 26 0
26 26 0
26 28 0
28 26 0
28 28 0
26 28 0
26 30 0
28 28 0
28 30 0
26 30 0
26 32 0
28 30 0
28 32 0
26 32 0
26 34 0
28 32 0
28 34 0
26 34 0
26 36 0
28 34 0
28 36 0
28 24 0
28 26 0
30 24 0
30 26 0
28 26 0
28 28 0
30 26 0
30 28 0
28 28 0
28 30 0
30 28 0
30 30 0
28 30 0
28 32 0
30 30 0
30 32 0
28 32 0
28 34 0
30 32 0
30 34 0
28 34 0
28 35 0
30 34 0
30 35 0
28 35 0
28 36 0
30 35 0
30 36 0
30 24 0
30 26 0
32 24 0
32 26 0
30 26 0
30 28 0
32 26 0
32 28 0
30 28 0
30 30 0
32 28 0
32 30 0
30 30 0
30 32 0
32 30 0
32 32 0
30 32 0
30 33 0
32 32 0
32 33 0
30 33 0
30 34 0
32 33 0
32 34 0
30 34 0
30 35 0
32 34 0
32 35 0
30 35 0
30 36 0
32 35 0
32 36 0
32 24 0
32 25 0
34 24 0
34 25 0
32 25 0
32 26 0
34 25 0
34 26 0
32 26 0
32 27 0
34 26 0
34 27 0
32 27 0
32 28 0
34 27 0
34 28 0
32 28 0
32 29 0
34 28 0
34 29 0
32 29 0
32 30 0
34 29 0
34 30 0
32 30 0
32 31 0
34 30 0
34 31 0
32 31 0
32 32 0
34 31 0
34 32 0
32 32 0
32 33 0
34 32 0
34 33 0
32 33 0
32 34 0
34 33 0
34 34 0
34 24 0
34 25 0
36 24 0
36 25 0
34 25 0
34 26 0
36 25 0
36 26 0
34 26 0
34 27 0
36 26 0
36 27 0
34 27 0
34 28 0
36 27 0
36 28 0
34 28 0
34 29 0
36 28 0
36 29 0
34 29 0
34 30 0
36 29 0
36 30 0
34 30 0
34 31 0
36 30 0
36 31 0
34 31 0
34 32 0
36 31 0
36 32 0
40 36 0
40 37 0
41 36 0
41 37 0
40 34 0
40 35 0
41 34 0
41 35 0
40 35 0
40 36 0
41 35 0
41 36 0
41 35 0
41 36 0
42 35 0
42 36 0
41 34 0
41 35 0
42 34 0
42 35 0
40 32 0
40 33 0
41 32 0
41 33 0
40 33 0
40 34 0
41 33 0
41 34 0
41 33 0
41 34 0
42 33 0
42 34 0
41 32 0
41 33 0
42 32 0
42 33 0
40 30 0
40 31 0
41 30 0
41 31 0
40 31 0
40 32 0
41 31 0
41 32 0
40 29 0
40 30 0
41 29 0
41 30 0
38 38 0
38 39 0
39 38 0
39 39 0
38 36 0
38 37 0
39 36 0
39 37 0
38 37 0
38 38 0
39 37 0
39 38 0
39 37 0
39 38 0
40 37 0
40 38 0
39 36 0
39 37 0
40 36 0
40 37 0
38 34 0
38 35 0
39 34 0
39 35 0
38 35 0
38 36 0
39 35 0
39 36 0
39 35 0
39 36 0
40 35 0
40 36 0
39 34 0
39 35 0
40 34 0
40 35 0
38 32 0
38 33 0
39 32 0
39 33 0
38 33 0
38 34 0
39 33 0
39 34 0
39 33 0
39 34 0
40 33 0
40 34 0
39 32 0
39 33 0
40 32 0
40 33 0
38 30 0
38 31 0
39 30 0
39 31 0
38 31 0
38 32 0
39 31 0
39 32 0
39 31 0
39 32 0
40 31 0
40 32 0
39 30 0
39 31 0
40 30 0
40 31 0
38 28 0
38 29 0
39 28 0
39 29 0
38 29 0
38 30 0
39 29 0
39 30 0
39 29 0
39 30 0
40 29 0
40 30 0
39 28 0
39 29 0
40 28 0
40 29 0
38 26 0
38 27 0
39 26 0
39 27 0
38 27 0
38 28 0
39 27 0
39 28 0
39 27 0
39 28 0
40 27 0
40 28 0
36 40 0
36 41 0
37 40 0
37 41 0
36 38 0
36 39 0
37 38 0
37 39 0
36 39 0
36 40 0
37 39 0
37 40 0
37 39 0
37 40 0
38 39 0
38 40 0
37 38 0
37 39 0
38 38 0
38 39 0
36 36 0
36 37 0
37 36 0
37 37 0
36 37 0
36 38 0
37 37 0
37 38 0
37 37 0
37 38 0
38 37 0
38 38 0
37 36 0
37 37 0
38 36 0
38 37 0
36 34 0
36 35 0
37 34 0
37 35 0
36 35 0
36 36 0
37 35 0
37 36 0
37 35 0
37 36 0
38 35 0
38 36 0
37 34 0
37 35 0
38 34 0
38 35 0
36 32 0
36 33 0
37 32 0
37 33 0
37 32 0
37 33 0
38 32 0
38 33 0
36 33 0
36 34 0
37 33 0
37 34 0
37 33 0
37 34 0
38 33 0
38 34 0
36 30 0
36 31 0
38 30 0
38 31 0
36 31 0
36 32 0
38 31 0
38 32 0
36 28 0
36 29 0
38 28 0
38 29 0
36 29 0
36 30 0
38 29 0
38 30 0
36 26 0
36 27 0
38 26 0
38 27 0
36 27 0
36 28 0
38 27 0
38 28 0
36 24 0
36 25 0
38 24 0
38 25 0
36 25 0
36 26 0
38 25 0
38 26 0
36 23 0
36 24 0
38 23 0
38 24 0
34 40 0
34 41 0
35 40 0
35 41 0
35 40 0
35 41 0
36 40 0
36 41 0
34 38 0
34 39 0
35 38 0
35 39 0
34 39 0
34 40 0
35 39 0
35 40 0
35 39 0
35 40 0
36 39 0
36 40 0
35 38 0
35 39 0
36 38 0
36 39 0
34 36 0
34 37 0
35 36 0
35 37 0
34 37 0
34 38 0
35 37 0
35 38 0
35 37 0
35 38 0
36 37 0
36 38 0
35 36 0
35 37 0
36 36 0
36 37 0
34 34 0
34 35 0
35 34 0
35 35 0
35 34 0
35 35 0
36 34 0
36 35 0
34 35 0
34 36 0
35 35 0
35 36 0
35 35 0
35 36 0
36 35 0
36 36 0
34 32 0
34 33 0
36 32 0
36 33 0
34 33 0
34 34 0
36 33 0
36 34 0
32 38 0
32 39 0
33 38 0
33 39 0
32 39 0
32 40 0
33 39 0
33 40 0
33 39 0
33 40 0
34 39 0
34 40 0
33 38 0
33 39 0
34 38 0
34 39 0
32 36 0
32 37 0
33 36 0
33 37 0
33 36 0
33 37 0
34 36 0
34 37 0
32 37 0
32 38 0
33 37 0
33 38 0
33 37 0
33 38 0
34 37 0
34 38 0
32 34 0
32 35 0
34 34 0
34 35 0
32 35 0
32 36 0
34 35 0
34 36 0
30 38 0
30 39 0
31 38 0
31 39 0
31 39 0
31 40 0
32 39 0
32 40 0
31 38 0
31 39 0
32 38 0
32 39 0
30 36 0
30 37 0
31 36 0
31 37 0
31 36 0
31 37 0
32 36 0
32 37 0
30 37 0
30 38 0
31 37 0
31 38 0
31 37 0
31 38 0
32 37 0
32 38 0
28 38 0
28 39 0
29 38 0
29 39 0
29 38 0
29 39 0
30 38 0
30 39 0
28 36 0
28 37 0
29 36 0
29 37 0
29 36 0
29 37 0
30 36 0
30 37 0
28 37 0
28 38 0
29 37 0
29 38 0
29 37 0
29 38 0
30 37 0
30 38 0
26 36 0
26 37 0
27 36 0
27 37 0
27 36 0
27 37 0
28 36 0
28 37 0
46 20 0
46 21 0
48 20 0
48 21 0
46 21 0
46 22 0
48 21 0
48 22 0
46 22 0
46 23 0
48 22 0
48 23 0
46 23 0
46 24 0
48 23 0
48 24 0
46 24 0
46 25 0
48 24 0
48 25 0
46 25 0
46 26 0
48 25 0
48 26 0
46 26 0
46 27 0
48 26 0
48 27 0
46 27 0
46 28 0
48 27 0
48 28 0
46 28 0
46 29 0
48 28 0
48 29 0
46 29 0
46 30 0
48 29 0
48 30 0
46 30 0
46 31 0
48 30 0
48 31 0
46 31 0
46 32 0
48 31 0
48 32 0
46 32 0
46 33 0
48 32 0
48 33 0
46 33 0
46 34 0
48 33 0
48 34 0
46 34 0
46 35 0
48 34 0
48 35 0
46 35 0
46 36 0
48 35 0
48 36 0
48 20 0
48 21 0
50 20 0
50 21 0
48 21 0
48 22 0
50 21 0
50 22 0
48 22 0
48 23 0
50 22 0
50 23 0
48 23 0
48 24 0
50 23 0
50 24 0
48 24 0
48 25 0
50 24 0
50 25 0
48 25 0
48 26 0
50 25 0
50 26 0
48 26 0
48 27 0
50 26 0
50 27 0
48 27 0
48 28 0
50 27 0
50 28 0
48 28 0
48 29 0
50 28 0
50 29 0
48 29 0
48 30 0
50 29 0
50 30 0
48 30 0
48 31 0
50 30 0
50 31 0
48 31 0
48 32 0
50 31 0
50 32 0
48 32 0
48 33 0
50 32 0
50 33 0
48 33 0
48 34 0
50 33 0
50 34 0
48 34 0
48 35 0
50 34 0
50 35 0
48 35 0
48 36 0
50 35 0
50 36 0
50 20 0
50 22 0
52 20 0
52 22 0
50 22 0
50 24 0
52 22 0
52 24 0
50 24 0
50 26 0
52 24 0
52 26 0
50 26 0
50 28 0
52 26 0
52 28 0
50 28 0
50 30 0
52 28 0
52 30 0
50 30 0
50 32 0
52 30 0
52 32 0
50 32 0
50 34 0
52 32 0
52 34 0
50 34 0
50 36 0
52 34 0
52 36 0
52 20 0
52 22 0
54 20 0
54 22 0
52 22 0
52 24 0
54 22 0
54 24 0
52 24 0
52 26 0
54 24 0
54 26 0
52 26 0
52 28 0
54 26 0
54 28 0
52 28 0
52 30 0
54 28 0
54 30 0
52 30 0
52 32 0
54 30 0
54 32 0
52 32 0
52 34 0
54 32 0
54 34 0
52 34 0
52 36 0
54 34 0
54 36 0
54 20 0
54 22 0
56.1667 20 0
56.1667 22 0
54 22 0
54 24 0
56.1667 22 0
56.1667 24 0
54 24 0
54 26 0
56.1667 24 0
56.1667 26 0
54 26 0
54 28 0
56.1667 26 0
56.1667 28 0
54 28 0
54 30 0
56.1667 28 0
56.1667 30 0
54 30 0
54 32 0
56.1667 30 0
56.1667 32 0
54 32 0
54 34 0
56.1667 32 0
56.1667 34 0
54 34 0
54 36 0
56.1667 34 0
56.1667 36 0
56.1667 20 0
56.1667 22 0
60 20 0
60 22 0
56.1667 22 0
56.1667 24 0
60 22 0
60 24 0
56.1667 24 0
56.1667 26 0
60 24 0
60 26 0
56.1667 26 0
56.1667 28 0
60 26 0
60 28 0
56.1667 28 0
56.1667 30 0
60 28 0
60 30 0
56.1667 30 0
56.1667 32 0
60 30 0
60 32 0
56.1667 32 0
56.1667 34 0
60 32 0
60 34 0
56.1667 34 0
56.1667 36 0
60 34 0
60 36 0
44 34 0
44 35 0
46 34 0
46 35 0
44 35 0
44 36 0
46 35 0
46 36 0
44 32 0
44 33 0
46 32 0
46 33 0
44 33 0
44 34 0
46 33 0
46 34 0
44 30 0
44 31 0
46 30 0
46 31 0
44 31 0
44 32 0
46 31 0
46 32 0
44 28 0
44 29 0
46 28 0
46 29 0
44 29 0
44 30 0
46 29 0
46 30 0
44 26 0
44 27 0
46 26 0
46 27 0
44 27 0
44 28 0
46 27 0
46 28 0
44 24 0
44 25 0
46 24 0
46 25 0
44 25 0
44 26 0
46 25 0
46 26 0
44 22 0
44 23 0
46 22 0
46 23 0
44 23 0
44 24 0
46 23 0
46 24 0
44 20 0
44 21 0
46 20 0
46 21 0
44 21 0
44 22 0
46 21 0
46 22 0
42 34 0
42 35 0
43 34 0
43 35 0
43 34 0
43 35 0
44 34 0
44 35 0
42 32 0
42 33 0
43 32 0
43 33 0
42 33 0
42 34 0
43 33 0
43 34 0
43 33 0
43 34 0
44 33 0
44 34 0
43 32 0
43 33 0
44 32 0
44 33 0
42 30 0
42 31 0
43 30 0
43 31 0
42 31 0
42 32 0
43 31 0
43 32 0
43 31 0
43 32 0
44 31 0
44 32 0
43 30 0
43 31 0
44 30 0
44 31 0
42 28 0
42 29 0
43 28 0
43 29 0
42 29 0
42 30 0
43 29 0
43 30 0
43 29 0
43 30 0
44 29 0
44 30 0
43 28 0
43 29 0
44 28 0
44 29 0
42 26 0
42 27 0
43 26 0
43 27 0
42 27 0
42 28 0
43 27 0
43 28 0
43 27 0
43 28 0
44 27 0
44 28 0
43 26 0
43 27 0
44 26 0
44 27 0
42 24 0
42 25 0
43 24 0
43 25 0
42 25 0
42 26 0
43 25 0
43 26 0
43 25 0
43 26 0
44 25 0
44 26 0
43 24 0
43 25 0
44 24 0
44 25 0
42 22 0
42 23 0
43 22 0
43 23 0
42 23 0
42 24 0
43 23 0
43 24 0
43 23 0
43 24 0
44 23 0
44 24 0
43 22 0
43 23 0
44 22 0
44 23 0
42 20 0
42 21 0
43 20 0
43 21 0
42 21 0
42 22 0
43 21 0
43 22 0
43 21 0
43 22 0
44 21 0
44 22 0
43 20 0
43 21 0
44 20 0
44 21 0
41 31 0
41 32 0
42 31 0
42 32 0
41 30 0
41 31 0
42 30 0
42 31 0
40 28 0
40 29 0
41 28 0
41 29 0
41 29 0
41 30 0
42 29 0
42 30 0
41 28 0
41 29 0
42 28 0
42 29 0
40 26 0
40 27 0
41 26 0
41 27 0
40 27 0
40 28 0
41 27 0
41 28 0
41 27 0
41 28 0
42 27 0
42 28 0
41 26 0
41 27 0
42 26 0
42 27 0
40 24 0
40 25 0
41 24 0
41 25 0
40 25 0
40 26 0
41 25 0
41 26 0
41 25 0
41 26 0
42 25 0
42 26 0
41 24 0
41 25 0
42 24 0
42 25 0
40 22 0
40 23 0
41 22 0
41 23 0
40 23 0
40 24 0
41 23 0
41 24 0
41 23 0
41 24 0
42 23 0
42 24 0
41 22 0
41 23 0
42 22 0
42 23 0
40 20 0
40 21 0
41 20 0
41 21 0
40 21 0
40 22 0
41 21 0
41 22 0
41 21 0
41 22 0
42 21 0
42 22 0
41 20 0
41 21 0
42 20 0
42 21 0
39 26 0
39 27 0
40 26 0
40 27 0
38 24 0
38 25 0
39 24 0
39 25 0
38 25 0
38 26 0
39 25 0
39 26 0
39 25 0
39 26 0
40 25 0
40 26 0
39 24 0
39 25 0
40 24 0
40 25 0
38 22 0
38 23 0
39 22 0
39 23 0
38 23 0
38 24 0
39 23 0
39 24 0
39 23 0
39 24 0
40 23 0
40 24 0
39 22 0
39 23 0
40 22 0
40 23 0
38 21 0
38 22 0
39 21 0
39 22 0
39 21 0
39 22 0
40 21 0
40 22 0
39 20 0
39 21 0
40 20 0
40 21 0
42 44 0
42 45 0
44 44 0
44 45 0
42 45 0
42 46 0
44 45 0
44 46 0
42 46 0
42 48 0
44 46 0
44 48 0
42 48 0
42 50 0
44 48 0
44 50 0
44 40 0
44 41 0
46 40 0
46 41 0
44 41 0
44 42 0
46 41 0
46 42 0
44 42 0
44 43 0
46 42 0
46 43 0
44 43 0
44 44 0
46 43 0
46 44 0
44 44 0
44 45 0
46 44 0
46 45 0
44 45 0
44 46 0
46 45 0
46 46 0
44 46 0
44 48 0
46 46 0
46 48 0
44 48 0
44 50 0
46 48 0
46 50 0
44 50 0
44 52 0
46 50 0
46 52 0
44 52 0
44 54 0
46 52 0
46 54 0
44 54 0
44 56.1667 0
46 54 0
46 56.1667 0
44 56.1667 0
44 60 0
46 56.1667 0
46 60 0
46 36 0
46 37 0
48 36 0
48 37 0
[...]
POINT_DATA 8960
SCALARS phi float 1
LOOKUP_TABLE default
1.00004
0.999272
1.00057
1.0003
0.999272
1.00077
1.0003
1.00035
1.00048
1.00029
0.999157
0.999216
1.00029
1.00057
0.999216
0.999225
1.00057
1.0003
0.999225
0.998865
1.0003
1.00035
0.998865
1.00001
1.00035
0.998172
1.00001
1.00042
0.998172
0.999287
1.00042
1.00007
0.999157
0.999216
1.00159
1.00143
0.999216
0.999225
1.00143
1.00145
0.999225
0.998865
1.00145
1.00169
0.998865
1.00001
1.00169
0.999632
1.00001
1.00042
0.999632
0.995156
1.00042
1.00085
0.995156
0.994217
1.00085
1.00007
0.994217
0.9967
1.00159
1.00143
0.997634
0.997457
1.00143
1.00145
0.997457
0.998102
1.00145
1.00169
0.998102
0.993392
1.00169
0.999632
0.993392
1.00191
0.999632
0.997133
1.00191
1.00095
0.997133
0.995156
1.00095
1.00809
0.995156
0.994217
1.00809
1.00661
0.994217
0.9967
1.00661
0.992658
0.997634
0.997257
1.00562
1.00601
0.997257
0.997457
1.00601
1.00633
0.997457
0.998542
1.00633
1.00566
0.998542
0.998102
1.00566
1.00565
0.998102
0.994682
1.00565
1.00799
0.994682
0.993392
1.00799
1.01023
0.993392
0.998195
1.01023
1.00839
0.998195
1.00191
1.00839
1.00167
1.00191
1.00095
1.00167
0.994484
1.00095
1.00809
0.994484
0.993942
1.00562
1.00601
0.992759
0.992495
1.00601
1.00633
0.992495
0.99238
1.00633
1.00566
0.99238
0.992766
1.00566
1.00565
0.992766
0.992473
1.00565
1.00799
0.992473
0.991102
1.00799
1.01023
0.991102
0.990443
1.01023
1.00839
0.990443
0.991491
1.00839
1.00167
0.991491
0.999512
0.000792284
-0.00063653
-0.000352743
0.000348205
-0.00611045
-0.000899377
0.00438621
0.000767161
-0.000899378
0.000792284
0.000767161
-0.000352743
0.000767161
-0.000352743
-0.000228356
0.000191214
0.00438621
0.000767161
-0.00149184
-0.000228356
0.0137361
0.0163362
-0.00738443
-0.00818434
0.0163362
-0.00611045
-0.00818434
0.00438621
-0.00818434
0.00438621
0.00348031
-0.00149184
-0.00738443
-0.00818434
0.00262846
0.00348031
0.00633838
0.00555678
-0.000922399
-0.00152219
0.00555678
0.0137361
-0.00152219
-0.00738443
0.00691198
0.00633838
-0.000384889
-0.000922399
0.000219758
-4.03924e-07
-0.000190565
0.00017996
0.0051851
-0.0016685
-0.00107852
0.00142287
-0.0016685
0.000219758
0.00142287
-0.000190565
0.00142287
-0.000190565
-0.00063653
0.00024895
-0.00107852
0.00142287
0.000792284
-0.00063653
0.100193
0.0290273
0.0190513
0.00332786
0.0290273
0.0051851
0.00332786
-0.00107852
0.00332786
-0.00107852
-0.000899377
0.000792284
0.0190513
0.00332786
-0.00611045
-0.000899377
0.669166
0.42185
0.0825967
0.00762819
0.42185
0.100193
0.00762819
0.0190513
0.00762819
0.0190513
0.0163362
-0.00611045
0.0825967
0.00762819
0.0137361
0.0163362
0.759288
0.757573
0.153446
0.157687
0.757573
0.669166
0.157687
0.0825967
0.157687
0.0825967
0.00555678
0.0137361
0.153446
0.157687
0.00633838
0.00555678
0.753297
0.757124
0.162027
0.157959
0.757124
0.759288
0.157959
0.153446
0.157959
0.153446
0.00691198
0.00633838
0.162027
0.157959
0.00817733
0.00691198
0.751978
0.751057
0.163295
0.16239
0.751057
0.753297
0.16239
0.162027
0.16239
0.162027
0.00802908
0.00817733
0.000568906
1.9236e-05
-0.000467249
0.000287241
0.0214448
0.00169287
0.000716209
0.00153808
0.00169287
0.000568906
0.00153808
-0.000467249
0.00153808
-0.000467249
-4.03975e-07
6.42518e-05
0.000716208
0.00153808
0.000219758
-4.03992e-07
0.328877
0.089913
0.035042
0.0161448
0.089913
0.0214448
0.0161448
0.000716209
0.0161448
0.000716209
-0.0016685
0.000219758
0.035042
0.0161448
0.0051851
-0.00166849
0.959898
0.753985
0.707658
0.273808
0.753985
0.328877
0.273808
0.035042
0.273808
0.035042
0.0290273
0.0051851
0.707658
0.273808
0.100193
0.0290273
0.999512
1.001
0.975788
0.859941
0.975788
0.859941
0.669166
0.42185
1.001
0.959898
0.859941
0.707658
0.859941
0.707658
0.42185
0.100193
0.990443
0.991491
0.759288
0.757573
0.991491
0.999512
0.757573
0.669166
0.992473
0.991102
0.753297
0.757124
0.991102
0.990443
0.757124
0.759288
0.99238
0.992766
0.751978
0.751057
0.992766
0.992473
0.751057
0.753297
0.992759
0.992495
0.753151
0.752257
0.992495
0.99238
0.752257
0.751978
0.992468
0.992759
0.754469
0.753151
0.00817115
-0.00225851
-0.000668224
0.000999331
-0.000668224
0.000999331
0.000568906
1.9236e-05
0.32942
0.0321238
0.103802
0.015087
0.0321239
0.00817115
0.015087
-0.000668224
0.015087
-0.000668224
0.00169287
0.000568906
0.103802
0.015087
0.0214448
0.00169287
0.95655
0.808734
0.799617
0.4831
0.808734
0.32942
0.4831
0.103802
0.4831
0.103802
0.089913
0.0214448
0.799617
0.4831
0.328877
0.089913
0.993942
0.986952
0.999517
0.995492
0.999517
0.995492
0.959898
0.753985
0.986952
0.95655
0.995492
0.799617
0.995492
0.799617
0.753985
0.328877
1.00167
0.994484
0.999512
1.001
0.994484
0.993942
1.001
0.959898
0.655631
0.308121
0.46469
0.0866889
0.308121
0.100151
0.0866889
0.0251347
0.0866889
0.0251347
0.0321238
0.00817115
0.46469
0.0866889
0.32942
0.0321239
0.992658
0.949035
0.986872
0.919431
0.986872
0.919431
0.956549
0.808734
0.949035
0.655631
0.919431
0.46469
0.919431
0.46469
0.808734
0.32942
1.00809
1.00661
0.993942
0.986952
1.00661
0.992658
0.986952
0.95655
0.975782
0.920639
0.898146
0.72205
0.72205
0.284354
0.308121
0.100151
0.898146
0.72205
0.655631
0.308121
0.9967
1.00446
0.994578
0.987769
0.994578
0.987769
0.992658
0.949035
1.00446
0.975782
0.987769
0.898146
0.987769
0.898146
0.949035
0.655631
0.987681
0.778206
0.985388
0.922527
0.985388
0.922527
0.975782
0.920639
1.00007
0.998366
0.998798
1.00125
0.998798
1.00125
0.9967
1.00446
0.998366
0.987681
1.00125
0.985388
1.00125
0.985388
1.00446
0.975782
0.999287
0.994631
0.999935
0.997898
0.999935
0.997898
1.00007
0.998366
0.000100079
1.3077e-05
-0.000125265
-9.10674e-05
1.3077e-05
6.37992e-05
-9.10674e-05
-2.699e-05
6.37992e-05
1.53136e-05
-2.699e-05
1.11753e-05
1.53136e-05
-1.77279e-05
1.11753e-05
1.96002e-05
-1.77279e-05
-1.78051e-05
1.96002e-05
1.30257e-05
-1.78051e-05
-1.73252e-05
1.30257e-05
1.60365e-05
-1.73252e-05
-2.20726e-05
1.60365e-05
4.94587e-05
-2.20726e-05
6.93801e-06
4.94587e-05
7.63603e-05
6.93801e-06
4.56898e-05
7.63603e-05
7.10678e-05
4.56898e-05
-4.56444e-05
7.10678e-05
0.000109408
-4.56444e-05
-3.26134e-05
0.000109408
0.000311517
-3.26134e-05
-0.000243022
0.000311517
0.000239521
-0.000243022
-0.000267558
0.000239521
-3.97924e-05
-0.000267558
6.97097e-05
-3.97924e-05
-9.33107e-06
6.97097e-05
3.67486e-05
-9.33109e-06
-7.86083e-05
3.67486e-05
-8.65119e-06
-7.86083e-05
-1.82306e-07
-0.000125265
-9.10674e-05
-5.31191e-05
-2.90906e-05
-9.10674e-05
-2.699e-05
-2.90906e-05
-1.36977e-06
-2.699e-05
1.11753e-05
-1.36977e-06
-3.98713e-06
1.11753e-05
1.96002e-05
-3.98713e-06
-1.43501e-05
1.96001e-05
1.30257e-05
-1.43501e-05
-7.10418e-06
1.30257e-05
1.60365e-05
-7.10418e-06
-2.47017e-06
1.60365e-05
4.94587e-05
-2.47017e-06
-1.76665e-05
4.94587e-05
7.63603e-05
-1.76665e-05
-1.23266e-05
7.63603e-05
7.10678e-05
-1.23266e-05
4.15284e-05
7.10678e-05
0.000109408
4.15284e-05
6.47413e-05
0.000109408
0.000311517
6.47413e-05
-8.36602e-06
0.000311517
0.000239521
-8.36602e-06
-8.24152e-05
0.000239521
-3.97924e-05
-8.24152e-05
-6.07876e-05
-3.97924e-05
-9.33107e-06
-6.07876e-05
-2.96366e-06
-9.33109e-06
-7.86083e-05
-2.96364e-06
1.49785e-05
-7.86083e-05
-1.823e-07
1.49785e-05
6.66458e-06
-5.31191e-05
-1.36977e-06
4.98647e-06
-2.00226e-06
-1.36977e-06
-1.43501e-05
-2.00226e-06
5.81737e-06
-1.43501e-05
-2.47017e-06
5.81737e-06
2.70605e-06
-2.47017e-06
-1.23266e-05
2.70605e-06
9.77111e-06
-1.23266e-05
6.47413e-05
9.77111e-06
-4.55431e-06
6.47413e-05
-8.24152e-05
-4.55432e-06
5.03701e-05
-8.24152e-05
-2.96365e-06
5.03701e-05
-6.21131e-06
-2.96365e-06
6.66458e-06
-6.21131e-06
-9.44476e-07
4.98647e-06
-2.00226e-06
-2.93312e-06
1.28339e-06
-2.00226e-06
5.81736e-06
1.28339e-06
-3.20203e-06
5.81736e-06
2.70605e-06
-3.20203e-06
-1.47292e-06
2.70605e-06
9.77111e-06
-1.47292e-06
-5.26118e-06
9.77111e-06
-4.55432e-06
-5.26118e-06
4.61984e-06
-4.55432e-06
5.03701e-05
4.61985e-06
-2.49475e-05
5.03701e-05
-6.21131e-06
-2.49475e-05
1.37783e-06
-6.21131e-06
-9.44476e-07
1.37783e-06
7.49463e-07
-2.93312e-06
1.28339e-06
1.75758e-06
-1.06377e-06
1.28339e-06
-3.20203e-06
-1.06377e-06
1.76445e-06
-3.20203e-06
-1.47292e-06
1.76445e-06
6.2661e-07
-1.47292e-06
-5.26118e-06
6.2661e-07
2.98839e-06
-5.26118e-06
4.61985e-06
2.98839e-06
-5.41153e-06
4.61984e-06
-2.49475e-05
-5.41153e-06
9.84962e-06
-2.49475e-05
1.37783e-06
9.84962e-06
2.41155e-06
1.37783e-06
7.49463e-07
2.41155e-06
-5.73444e-07
1.75758e-06
-1.06377e-06
1.4715e-06
-7.40151e-07
-1.06377e-06
1.76445e-06
-7.40152e-07
1.60924e-06
1.76445e-06
6.2661e-07
1.60924e-06
9.00637e-07
6.2661e-07
2.98839e-06
9.00636e-07
2.61429e-06
2.98839e-06
-5.41153e-06
2.61429e-06
-2.58913e-06
-5.41153e-06
9.84962e-06
-2.58913e-06
1.01458e-05
9.84962e-06
2.41155e-06
1.01458e-05
3.46003e-07
2.41155e-06
-5.73444e-07
3.46003e-07
-4.71824e-07
0.000124163
1.70775e-05
6.97097e-05
3.67486e-05
1.70775e-05
-7.32226e-06
3.67486e-05
-8.65119e-06
-0.000124859
-0.000209886
-0.000243022
-0.000267558
-0.000209886
0.000124163
-0.000267558
6.97097e-05
-4.24034e-05
6.38453e-05
-4.56444e-05
-3.26134e-05
6.38453e-05
-0.000124859
-3.26134e-05
-0.000243022
-2.40471e-05
-8.311e-06
6.93801e-06
4.56898e-05
-8.31103e-06
-4.24035e-05
4.56898e-05
-4.56444e-05
-3.26729e-05
-2.88523e-05
-1.73252e-05
-2.20726e-05
-2.88523e-05
-2.40471e-05
-2.20726e-05
6.93801e-06
-2.21096e-05
-2.85259e-05
-1.77279e-05
-1.78051e-05
-2.85259e-05
-3.26729e-05
-1.78051e-05
-1.73252e-05
-2.00644e-05
-9.66611e-06
6.37992e-05
1.53136e-05
-9.66611e-06
-2.21096e-05
1.53136e-05
-1.77279e-05
3.91563e-05
-4.30557e-05
0.000100079
1.3077e-05
-4.30557e-05
-2.00644e-05
1.3077e-05
6.37992e-05
-0.00149183
-0.000228356
0.000564489
0.000102821
0.000564489
0.000102821
0.000124163
1.70775e-05
0.00262846
0.00348031
-0.000910982
-0.00121623
0.00348031
-0.00149183
-0.00121623
0.000564489
-0.00121623
0.000564489
-0.000209886
0.000124162
-0.000910982
-0.00121623
-0.000124859
-0.000209886
0.000340414
0.000211263
-0.000103669
-5.06919e-05
0.000211263
0.00262846
-5.06919e-05
-0.000910982
-5.06919e-05
-0.000910982
6.38453e-05
-0.000124859
-0.000103669
-5.06919e-05
-4.24035e-05
6.38453e-05
0.000279345
0.000290949
-0.000127384
-0.000117839
0.000290949
0.000340414
-0.000117839
-0.000103669
-0.000117839
-0.000103669
-8.31101e-06
-4.24035e-05
-0.000127384
-0.000117839
-2.40471e-05
-8.31101e-06
0.000257227
0.000236413
-9.66516e-05
-9.65777e-05
0.000236413
0.000279345
-9.65777e-05
-0.000127384
-9.65777e-05
-0.000127384
-2.88523e-05
-2.40471e-05
-9.66516e-05
-9.65777e-05
-3.26729e-05
-2.88523e-05
0.000161162
0.00022542
-6.10658e-05
-8.4763e-05
0.00022542
0.000257227
-8.4763e-05
-9.66516e-05
-8.4763e-05
-9.66516e-05
-2.85259e-05
-3.26729e-05
-6.10658e-05
-8.4763e-05
-2.21096e-05
-2.85259e-05
0.000274623
8.85446e-05
-0.000154892
-4.85181e-05
8.85446e-05
0.000161162
-4.85181e-05
-6.10658e-05
-4.8518e-05
-6.10658e-05
-9.66611e-06
-2.21096e-05
-0.000154892
-4.85181e-05
-2.00644e-05
-9.66611e-06
0.000518653
0.000272765
-0.000264595
-0.000150416
0.000272765
0.000274623
-0.000150416
-0.000154892
-0.000150416
-0.000154891
-4.30557e-05
-2.00644e-05
-0.000264595
-0.000150416
3.91562e-05
-4.30557e-05
-0.00152219
-0.00738442
0.000211263
0.00262846
-0.000922399
-0.00152219
0.000340414
0.000211263
0.00817733
0.00691198
-0.000250247
-0.000384889
-0.000384889
-0.000922399
0.000290949
0.000340414
-0.000250247
-0.000384889
0.000279345
0.000290949
0.00845262
0.00802908
-0.000187643
-0.000148256
0.00802908
0.00817733
-0.000148256
-0.000250247
-0.000148256
-0.000250247
0.000236413
0.000279345
-0.000187643
-0.000148256
0.000257227
0.000236413
0.00838555
0.00800997
1.54537e-05
-0.000115896
0.00800997
0.00845262
-0.000115896
-0.000187643
-0.000115896
-0.000187643
0.00022542
0.000257227
1.54537e-05
-0.000115896
0.000161162
0.00022542
0.00844927
0.00731283
-0.00017183
0.000158701
0.00731283
0.00838555
0.000158701
1.54537e-05
0.000158701
1.54537e-05
8.85446e-05
0.000161162
-0.00017183
0.000158701
0.000274623
8.85446e-05
0.00914505
0.00828455
-0.000558362
-0.000261725
0.00828455
0.00844927
-0.000261725
-0.00017183
-0.000261725
-0.00017183
0.000272765
0.000274623
-0.000558362
-0.000261725
0.000518653
0.000272765
0.163295
0.16239
0.00845262
0.00802908
0.753151
0.752257
0.166998
0.162662
0.752257
0.751978
0.162662
0.163295
0.162662
0.163295
0.00800997
0.00845262
0.166998
0.162662
0.00838555
0.00800997
0.751249
0.754469
0.162974
0.165705
0.754469
0.753151
0.165705
0.166998
0.165705
0.166998
0.00731283
0.00838555
0.162974
0.165705
0.00844927
0.00731283
0.750839
0.751249
0.162335
0.162974
0.162335
0.162974
0.00828455
0.00844927
0.154922
0.162335
0.00914505
0.00828456
1.28816e-05
7.20879e-06
6.46567e-06
3.17429e-06
7.20879e-06
4.94329e-07
3.17429e-06
1.2354e-06
4.94329e-07
-9.92893e-07
1.2354e-06
2.66601e-07
-9.92893e-07
3.53739e-07
2.66601e-07
-3.69582e-08
-1.86746e-05
-2.72768e-05
-1.05747e-05
-6.73163e-06
-2.72768e-05
3.87083e-06
-6.73163e-06
-1.72489e-06
3.87083e-06
1.57444e-05
-1.72489e-06
1.6034e-06
1.57444e-05
6.46567e-06
1.6034e-06
2.29774e-06
6.46567e-06
3.17429e-06
2.29774e-06
8.44982e-07
3.17429e-06
1.2354e-06
8.44982e-07
-7.25396e-07
1.2354e-06
2.66601e-07
-7.25396e-07
9.9671e-09
2.66601e-07
-3.69582e-08
9.9671e-09
2.7673e-07
-3.69582e-08
6.43252e-08
2.7673e-07
-2.21339e-08
6.43252e-08
2.3664e-10
-2.21339e-08
9.71559e-09
2.36637e-10
-3.1885e-08
9.71559e-09
4.29531e-09
-3.1885e-08
2.37495e-08
4.29531e-09
-1.17388e-09
-8.65119e-06
-3.70479e-07
-1.82305e-07
2.94895e-05
-3.70479e-07
8.20124e-06
2.94895e-05
-7.38003e-06
8.20124e-06
-2.12116e-06
-7.38003e-06
-9.47294e-06
-2.12116e-06
-1.05747e-05
-9.47294e-06
1.11412e-05
-1.05747e-05
-6.73163e-06
1.11412e-05
7.83691e-06
-6.73163e-06
-1.72489e-06
7.83691e-06
-4.79067e-06
-1.72489e-06
1.6034e-06
-4.79067e-06
-3.53234e-06
1.6034e-06
2.29774e-06
-3.53234e-06
2.90863e-06
2.29774e-06
-7.25396e-07
2.90863e-06
-1.43945e-06
-7.25396e-07
9.96711e-09
-1.43945e-06
6.92825e-07
9.96707e-09
2.7673e-07
6.92825e-07
-2.32363e-07
2.7673e-07
-2.21339e-08
-2.32363e-07
1.94123e-07
-2.21339e-08
9.7156e-09
1.94123e-07
-6.59898e-08
9.71559e-09
4.29531e-09
-6.59897e-08
-9.87352e-09
4.29531e-09
-1.17388e-09
-9.87352e-09
9.89511e-09
-1.82296e-07
2.94895e-05
6.66458e-06
1.21923e-06
2.94895e-05
-7.38003e-06
1.21923e-06
6.13037e-08
-7.38003e-06
-9.47294e-06
6.13043e-08
-1.11755e-06
-9.47294e-06
1.11412e-05
-1.11755e-06
-1.82902e-06
1.11412e-05
-4.79067e-06
-1.82902e-06
1.27285e-07
-4.79067e-06
2.90863e-06
1.27285e-07
-2.49678e-07
2.90863e-06
-1.43945e-06
-2.49678e-07
2.07465e-07
-1.43945e-06
6.92825e-07
2.07464e-07
-7.91615e-08
6.92825e-07
-2.32363e-07
-7.91616e-08
-2.24159e-08
-2.32363e-07
1.94123e-07
-2.24159e-08
-1.54201e-08
1.94123e-07
-6.59897e-08
-1.542e-08
-2.3851e-09
-6.59898e-08
-9.87352e-09
-2.3851e-09
1.081e-08
-9.87351e-09
9.89511e-09
1.081e-08
-2.56467e-09
6.66458e-06
6.1304e-08
-9.44476e-07
-6.29145e-07
6.13045e-08
-1.82902e-06
-6.29145e-07
1.30256e-06
-1.82902e-06
1.27284e-07
1.30256e-06
-3.18491e-07
1.27285e-07
-2.49678e-07
-3.18491e-07
2.15869e-07
-2.49678e-07
2.07464e-07
2.15869e-07
-1.16587e-07
2.07464e-07
-7.91615e-08
-1.16587e-07
6.62341e-08
-7.91615e-08
-2.24159e-08
6.6234e-08
-1.6667e-08
-2.24159e-08
-1.542e-08
-1.6667e-08
1.71569e-08
-1.542e-08
-2.3851e-09
1.71569e-08
-4.19983e-09
-2.38509e-09
1.081e-08
-4.19983e-09
-2.84119e-09
1.081e-08
-2.56467e-09
-2.84119e-09
1.74122e-09
-9.44477e-07
-6.29145e-07
7.49463e-07
-1.9622e-08
-6.29145e-07
1.30256e-06
-1.9622e-08
-5.46188e-07
1.30256e-06
-3.18491e-07
-5.46188e-07
1.72741e-07
-3.18491e-07
2.15869e-07
1.72741e-07
-7.96328e-08
2.15869e-07
-1.16587e-07
-7.96328e-08
2.6867e-08
-1.16587e-07
6.6234e-08
2.6867e-08
-2.93889e-08
6.6234e-08
-1.6667e-08
-2.93889e-08
1.32505e-08
-1.6667e-08
1.71569e-08
1.32505e-08
-7.75542e-09
1.71569e-08
-4.19983e-09
-7.75543e-09
2.73787e-09
-4.19982e-09
-2.84119e-09
2.73787e-09
5.31466e-11
-2.84119e-09
1.74122e-09
5.31463e-11
-1.46329e-09
7.49464e-07
-1.96219e-08
-5.73444e-07
5.40938e-07
-1.96218e-08
-5.46187e-07
5.40938e-07
4.75361e-08
-5.46188e-07
1.72741e-07
4.75361e-08
-1.06552e-07
1.72741e-07
-7.96328e-08
-1.06553e-07
-1.1304e-08
-7.96328e-08
2.6867e-08
-1.1304e-08
4.36979e-08
2.6867e-08
-2.93889e-08
4.36979e-08
6.41354e-09
-2.93889e-08
1.32505e-08
6.41355e-09
-1.55911e-08
1.32505e-08
-7.75543e-09
-1.55911e-08
2.27828e-09
-7.75542e-09
2.73787e-09
2.27829e-09
-2.63701e-09
2.73787e-09
5.31464e-11
-2.637e-09
2.61493e-09
5.31463e-11
-1.46329e-09
2.61493e-09
1.64304e-09
-5.73443e-07
5.40938e-07
-4.71824e-07
1.76974e-07
5.40938e-07
4.75361e-08
1.76974e-07
1.96457e-07
4.75361e-08
-1.06553e-07
1.96457e-07
-8.90094e-08
-1.06552e-07
-1.1304e-08
-8.90094e-08
1.93364e-08
-1.1304e-08
4.36979e-08
1.93364e-08
4.7921e-09
4.36979e-08
6.41354e-09
4.7921e-09
1.3012e-08
6.41355e-09
-1.55911e-08
1.3012e-08
-8.25813e-09
-1.55911e-08
2.27829e-09
-8.25813e-09
3.21859e-09
2.27829e-09
-2.63701e-09
3.21859e-09
-1.88876e-09
-2.637e-09
2.61493e-09
-1.88876e-09
1.20451e-09
2.61493e-09
1.64304e-09
1.20451e-09
1.24747e-09
-1.49372e-05
-1.49258e-06
8.20124e-06
-2.12116e-06
-1.49258e-06
-1.86746e-05
-2.12116e-06
-1.05747e-05
-7.32226e-06
2.5324e-05
-8.65119e-06
-3.70477e-07
2.5324e-05
-1.49372e-05
-3.70477e-07
8.20124e-06
8.55872e-06
2.10072e-05
3.87083e-06
1.57444e-05
2.10072e-05
1.28816e-05
1.57444e-05
6.46567e-06
8.36385e-07
-1.12026e-05
-1.86746e-05
-2.72768e-05
-1.12026e-05
8.55872e-06
-2.72768e-05
3.87083e-06
8.7174e-05
0.000123282
-7.80473e-06
-5.62765e-05
-7.80473e-06
-5.62765e-05
-1.49372e-05
-1.49258e-06
0.000123282
8.36386e-07
-5.62765e-05
-7.78492e-06
-5.62765e-05
-7.78492e-06
-1.49258e-06
-1.86746e-05
0.000191214
-0.000123632
-4.62847e-05
7.70966e-05
-0.000123632
8.71741e-05
7.70966e-05
-7.80473e-06
7.70966e-05
-7.80473e-06
2.5324e-05
-1.49372e-05
-4.62847e-05
7.70966e-05
-7.32226e-06
2.5324e-05
-0.000228356
0.000191214
0.000102821
-4.62847e-05
0.000102821
-4.62847e-05
1.70775e-05
-7.32226e-06
7.99652e-07
-4.70772e-06
1.28816e-05
7.20879e-06
-4.70772e-06
1.56849e-06
7.20879e-06
4.94329e-07
1.40479e-05
-3.34633e-06
7.42874e-06
1.29934e-06
7.42874e-06
1.29934e-06
8.55872e-06
2.10072e-05
-3.34633e-06
7.99651e-07
1.29934e-06
8.4998e-06
1.29934e-06
8.4998e-06
2.10072e-05
1.28816e-05
7.37283e-05
3.42883e-05
2.22273e-05
2.07008e-06
3.42883e-05
1.40479e-05
2.07008e-06
7.42874e-06
2.07008e-06
7.42874e-06
-1.12026e-05
8.55872e-06
2.22273e-05
2.07008e-06
8.36384e-07
-1.12026e-05
0.00024895
0.000125031
5.80381e-05
0.000303738
0.000125031
7.37282e-05
0.000303738
2.22273e-05
0.000303738
2.22273e-05
0.000123282
8.36385e-07
5.80381e-05
0.000303738
8.71741e-05
0.000123282
-0.00063653
0.00024895
0.000348205
5.80381e-05
0.000348205
5.8038e-05
-0.000123632
8.71741e-05
-0.000352743
0.000348205
0.000191214
-0.000123632
1.42555e-05
-1.86189e-05
3.8146e-07
-2.48263e-05
-1.86189e-05
-1.91411e-05
-2.48263e-05
-4.43508e-06
-2.48263e-05
-4.43508e-06
-3.34633e-06
7.99652e-07
3.81461e-07
-2.48263e-05
1.40479e-05
-3.34633e-06
6.42519e-05
4.38248e-05
2.24062e-05
0.000133277
4.38248e-05
1.42555e-05
0.000133277
3.81458e-07
0.000133277
3.81461e-07
3.42883e-05
1.40479e-05
2.24062e-05
0.000133277
7.37282e-05
3.42883e-05
-4.03912e-07
6.42519e-05
0.00017996
2.24062e-05
0.00017996
2.24062e-05
0.000125031
7.37282e-05
-0.000190565
0.00017996
0.00024895
0.000125031
0.000287241
-0.000129214
4.38247e-05
1.42555e-05
-0.000467249
0.000287241
6.42519e-05
4.38247e-05
0.00049251
7.34968e-05
0.000537539
5.21399e-05
7.34968e-05
-1.02951e-05
5.21399e-05
1.02183e-05
-1.02951e-05
9.0404e-06
1.02183e-05
-6.19343e-07
9.0404e-06
-7.71943e-06
-6.19342e-07
-4.30137e-06
-7.71943e-06
-5.58502e-06
-4.30137e-06
-2.23878e-06
0.000537539
5.21399e-05
0.000405276
2.8409e-06
5.21399e-05
1.02183e-05
2.8409e-06
2.35287e-05
1.02183e-05
-6.19343e-07
2.35287e-05
-1.41854e-05
-6.19343e-07
-4.30137e-06
-1.41854e-05
9.57723e-06
-4.30137e-06
-2.23878e-06
9.57723e-06
6.04244e-06
0.000405276
2.84091e-06
0.000125816
1.87233e-05
2.8409e-06
2.35287e-05
1.87233e-05
9.8831e-07
2.35287e-05
-1.41854e-05
9.8831e-07
-1.99892e-06
-1.41854e-05
9.57723e-06
-1.99892e-06
9.9565e-07
9.57723e-06
6.04244e-06
9.9565e-07
-6.85424e-07
0.000125816
1.87233e-05
-2.19371e-06
4.18711e-08
1.87233e-05
9.88311e-07
4.18708e-08
4.07226e-06
9.88311e-07
-1.99892e-06
4.07226e-06