# vtk DataFile Version 2.0
Hex test
ASCII
DATASET UNSTRUCTURED_GRID
POINTS 10292 float
36 -18 0
36 -14.1667 0
38 -18 0
38 -14.1667 0
36 -14.1667 0
36 -12 0
38 -14.1667 0
38 -12 0
36 -12 0
36 -10 0
38 -12 0
38 -10 0
36 -10 0
36 -8 0
38 -10 0
38 -8 0
36 -8 0
36 -6 0
38 -8 0
38 -6 0
36 -6 0
36 -4 0
38 -6 0
38 -4 0
36 -4 0
36 -2 0
38 -4 0
38 -2 0
38 -18 0
38 -14.1667 0
40 -18 0
40 -14.1667 0
38 -14.1667 0
38 -12 0
40 -14.1667 0
40 -12 0
38 -12 0
38 -10 0
40 -12 0
40 -10 0
38 -10 0
38 -8 0
40 -10 0
40 -8 0
38 -8 0
38 -6 0
40 -8 0
40 -6 0
38 -6 0
38 -4 0
40 -6 0
40 -4 0
38 -4 0
38 -2 0
40 -4 0
40 -2 0
38 -2 0
38 -1 0
40 -2 0
40 -1 0
38 -1 0
38 6.93889e-18 0
40 -1 0
40 0 0
40 -18 0
40 -14.1667 0
42 -18 0
42 -14.1667 0
40 -14.1667 0
40 -12 0
42 -14.1667 0
42 -12 0
40 -12 0
40 -10 0
42 -12 0
42 -10 0
40 -10 0
40 -8 0
42 -10 0
42 -8 0
40 -8 0
40 -6 0
42 -8 0
42 -6 0
40 -6 0
40 -4 0
42 -6 0
42 -4 0
40 -4 0
40 -2 0
42 -4 0
42 -2 0
40 -2 0
40 -1 0
42 -2 0
42 -1 0
40 -1 0
40 1.38778e-17 0
42 -1 0
42 2.77556e-17 0
40 2.77556e-17 0
40 1 0
42 0 0
42 1 0
40 1 0
40 2 0
42 1 0
42 2 0
40 2 0
40 3 0
42 2 0
42 3 0
40 3 0
40 4 0
42 3 0
42 4 0
42 -18 0
42 -14.1667 0
44 -18 0
44 -14.1667 0
42 -14.1667 0
42 -12 0
44 -14.1667 0
44 -12 0
42 -12 0
42 -10 0
44 -12 0
44 -10 0
42 -10 0
42 -8 0
44 -10 0
44 -8 0
42 -8 0
42 -6 0
44 -8 0
44 -6 0
42 -6 0
42 -4 0
44 -6 0
44 -4 0
42 -4 0
42 -2 0
44 -4 0
44 -2 0
42 -2 0
42 -2.77556e-17 0
44 -2 0
44 -2.77556e-17 0
42 5.55112e-17 0
42 1 0
44 2.77556e-17 0
44 1 0
42 1 0
42 2 0
44 1 0
44 2 0
42 2 0
42 3 0
44 2 0
44 3 0
42 3 0
42 4 0
44 3 0
44 4 0
44 -18 0
44 -14.1667 0
46 -18 0
46 -14.1667 0
44 -14.1667 0
44 -12 0
46 -14.1667 0
46 -12 0
44 -12 0
44 -10 0
46 -12 0
46 -10 0
44 -10 0
44 -8 0
46 -10 0
46 -8 0
44 -8 0
44 -6 0
46 -8 0
46 -6 0
44 -6 0
44 -4 0
46 -6 0
46 -4 0
44 -4 0
44 -2 0
46 -4 0
46 -2 0
44 -2 0
44 -2.77556e-17 0
46 -2 0
46 -2.77556e-17 0
44 2.77556e-17 0
44 2 0
46 2.77556e-17 0
46 2 0
44 2 0
44 4 0
46 2 0
46 4 0
46 -18 0
46 -14.1667 0
48 -18 0
48 -14.1667 0
46 -14.1667 0
46 -12 0
48 -14.1667 0
48 -12 0
46 -12 0
46 -10 0
48 -12 0
48 -10 0
46 -10 0
46 -8 0
48 -10 0
48 -8 0
46 -8 0
46 -6 0
48 -8 0
48 -6 0
46 -6 0
46 -4 0
48 -6 0
48 -4 0
46 -4 0
46 -2 0
48 -4 0
48 -2 0
46 -2 0
46 -2.77556e-17 0
48 -2 0
48 -2.77556e-17 0
46 2.77556e-17 0
46 2 0
48 2.77556e-17 0
48 2 0
46 2 0
46 4 0
48 2 0
48 4 0
48 -18 0
48 -14.1667 0
50 -18 0
50 -14.1667 0
48 -14.1667 0
48 -12 0
50 -14.1667 0
50 -12 0
48 -12 0
48 -10 0
50 -12 0
50 -10 0
48 -10 0
48 -8 0
50 -10 0
50 -8 0
48 -8 0
48 -6 0
50 -8 0
50 -6 0
48 -6 0
48 -4 0
50 -6 0
50 -4 0
48 -4 0
48 -2 0
50 -4 0
50 -2 0
48 -2 0
48 -2.77556e-17 0
50 -2 0
50 -2.77556e-17 0
48 2.77556e-17 0
48 2 0
50 2.77556e-17 0
50 2 0
50 -18 0
50 -14.1667 0
52 -18 0
52 -14.1667 0
50 -14.1667 0
50 -12 0
52 -14.1667 0
52 -12 0
50 -12 0
50 -10 0
52 -12 0
52 -10 0
50 -10 0
50 -8 0
52 -10 0
52 -8 0
50 -8 0
50 -6 0
52 -8 0
52 -6 0
50 -6 0
50 -4 0
52 -6 0
52 -4 0
50 -4 0
50 -2 0
52 -4 0
52 -2 0
50 -2 0
50 -2.77556e-17 0
52 -2 0
52 -2.77556e-17 0
50 2.77556e-17 0
50 2 0
52 2.77556e-17 0
52 2 0
52 -18 0
52 -14.1667 0
54 -18 0
54 -14.1667 0
52 -14.1667 0
52 -12 0
54 -14.1667 0
54 -12 0
52 -12 0
52 -10 0
54 -12 0
54 -10 0
52 -10 0
52 -8 0
54 -10 0
54 -8 0
52 -8 0
52 -6 0
54 -8 0
54 -6 0
52 -6 0
52 -4 0
54 -6 0
54 -4 0
52 -4 0
52 -2 0
54 -4 0
54 -2 0
52 -2 0
52 -2.77556e-17 0
54 -2 0
54 -2.77556e-17 0
52 2.77556e-17 0
52 2 0
54 2.77556e-17 0
54 2 0
54 -18 0
54 -14.1667 0
56.1667 -18 0
56.1667 -14.1667 0
54 -14.1667 0
54 -12 0
56.1667 -14.1667 0
56.1667 -12 0
54 -12 0
54 -10 0
56.1667 -12 0
56.1667 -10 0
54 -10 0
54 -8 0
56.1667 -10 0
56.1667 -8 0
54 -8 0
54 -6 0
56.1667 -8 0
56.1667 -6 0
54 -6 0
54 -4 0
56.1667 -6 0
56.1667 -4 0
54 -4 0
54 -2 0
56.1667 -4 0
56.1667 -2 0
54 -2 0
54 -2.77556e-17 0
56.1667 -2 0
56.1667 0 0
54 2.77556e-17 0
54 2 0
56.1667 0 0
56.1667 2 0
56.1667 -18 0
56.1667 -14.1667 0
60 -18 0
60 -14.1667 0
56.1667 -14.1667 0
56.1667 -12 0
60 -14.1667 0
60 -12 0
56.1667 -12 0
56.1667 -10 0
60 -12 0
60 -10 0
56.1667 -10 0
56.1667 -8 0
60 -10 0
60 -8 0
56.1667 -8 0
56.1667 -6 0
60 -8 0
60 -6 0
56.1667 -6 0
56.1667 -4 0
60 -6 0
60 -4 0
56.1667 -4 0
56.1667 -2 0
60 -4 0
60 -2 0
56.1667 -2 0
56.1667 6.93889e-17 0
60 -2 0
60 0 0
56.1667 -1.38778e-17 0
56.1667 2 0
60 0 0
60 2 0
44 4 0
44 5 0
46 4 0
46 5 0
42 4 0
42 5 0
43 4 0
43 5 0
43 4 0
43 5 0
44 4 0
44 5 0
40 4 0
40 5 0
42 4 0
42 5 0
40 5 0
40 6 0
42 5 0
42 6 0
38 6 0
38 7 0
39 6 0
39 7 0
39 6 0
39 7 0
40 6 0
40 7 0
38 4 0
38 5 0
39 4 0
39 5 0
39 4 0
39 5 0
40 4 0
40 5 0
38 5 0
38 6 0
39 5 0
39 6 0
39 5 0
39 6 0
40 5 0
40 6 0
38 2 0
38 3 0
40 2 0
40 3 0
38 3 0
38 4 0
40 3 0
40 4 0
38 0 0
38 1 0
40 4.16334e-17 0
40 1 0
38 1 0
38 2 0
40 1 0
40 2 0
36 6 0
36 7 0
37 6 0
37 7 0
37 6 0
37 7 0
38 6 0
38 7 0
36 4 0
36 5 0
37 4 0
37 5 0
36 5 0
36 6 0
37 5 0
37 6 0
37 5 0
37 6 0
38 5 0
38 6 0
37 4 0
37 5 0
38 4 0
38 5 0
36 2 0
36 3 0
37 2 0
37 3 0
36 3 0
36 4 0
37 3 0
37 4 0
37 3 0
37 4 0
38 3 0
38 4 0
37 2 0
37 3 0
38 2 0
38 3 0
36 0 0
36 1 0
37 -1.47451e-17 0
37 1 0
37 -1.47451e-17 0
37 1 0
38 -6.93889e-18 0
38 1 0
36 1 0
36 2 0
37 1 0
37 2 0
37 1 0
37 2 0
38 1 0
38 2 0
36 -2 0
36 -1 0
38 -2 0
38 -1 0
36 -1 0
36 -2.77556e-17 0
38 -1 0
38 -2.08167e-17 0
34 4 0
34 5 0
35 4 0
35 5 0
35 5 0
35 6 0
36 5 0
36 6 0
35 4 0
35 5 0
36 4 0
36 5 0
34 2 0
34 3 0
35 2 0
35 3 0
34 3 0
34 4 0
35 3 0
35 4 0
35 3 0
35 4 0
36 3 0
36 4 0
35 2 0
35 3 0
36 2 0
36 3 0
34 1.38778e-17 0
34 1 0
35 -8.67362e-18 0
35 1 0
34 1 0
34 2 0
35 1 0
35 2 0
35 1 0
35 2 0
36 1 0
36 2 0
35 -2.42861e-17 0
35 1 0
36 -3.46945e-18 0
36 1 0
34 -2 0
34 -1 0
35 -2 0
35 -1 0
35 -2 0
35 -1 0
36 -2 0
36 -1 0
34 -1 0
34 -2.77556e-17 0
35 -1 0
35 1.9082e-17 0
35 -1 0
35 1.9082e-17 0
36 -1 0
36 -1.73472e-17 0
32 2 0
32 3 0
33 2 0
33 3 0
33 3 0
33 4 0
34 3 0
34 4 0
33 2 0
33 3 0
34 2 0
34 3 0
33 1 0
33 2 0
34 1 0
34 2 0
46 4 0
46 5 0
48 4 0
48 5 0
46 5 0
46 6 0
48 5 0
48 6 0
48 2 0
48 4 0
50 2 0
50 4 0
48 4 0
48 5 0
50 4 0
50 5 0
48 5 0
48 6 0
50 5 0
50 6 0
48 6 0
48 7 0
50 6 0
50 7 0
48 7 0
48 8 0
50 7 0
50 8 0
48 8 0
48 9 0
50 8 0
50 9 0
48 9 0
48 10 0
50 9 0
50 10 0
48 10 0
48 11 0
50 10 0
50 11 0
48 11 0
48 12 0
50 11 0
50 12 0
48 12 0
48 13 0
50 12 0
50 13 0
48 13 0
48 14 0
50 13 0
50 14 0
48 14 0
48 15 0
50 14 0
50 15 0
48 15 0
48 16 0
50 15 0
50 16 0
48 16 0
48 17 0
50 16 0
50 17 0
48 17 0
48 18 0
50 17 0
50 18 0
50 2 0
50 4 0
52 2 0
52 4 0
50 4 0
50 6 0
52 4 0
52 6 0
50 6 0
50 7 0
52 6 0
52 7 0
50 7 0
50 8 0
52 7 0
52 8 0
50 8 0
50 9 0
52 8 0
52 9 0
50 9 0
50 10 0
52 9 0
52 10 0
50 10 0
50 11 0
52 10 0
52 11 0
50 11 0
50 12 0
52 11 0
52 12 0
50 12 0
50 13 0
52 12 0
52 13 0
50 13 0
50 14 0
52 13 0
52 14 0
50 14 0
50 15 0
52 14 0
52 15 0
50 15 0
50 16 0
52 15 0
52 16 0
50 16 0
50 17 0
52 16 0
52 17 0
50 17 0
50 18 0
52 17 0
52 18 0
52 2 0
52 4 0
54 2 0
54 4 0
52 4 0
52 6 0
54 4 0
54 6 0
52 6 0
52 8 0
54 6 0
54 8 0
52 8 0
52 10 0
54 8 0
54 10 0
52 10 0
52 12 0
54 10 0
54 12 0
52 12 0
52 14 0
54 12 0
54 14 0
52 14 0
52 16 0
54 14 0
54 16 0
52 16 0
52 18 0
54 16 0
54 18 0
54 2 0
54 4 0
56.1667 2 0
56.1667 4 0
54 4 0
54 6 0
56.1667 4 0
56.1667 6 0
54 6 0
54 8 0
56.1667 6 0
56.1667 8 0
54 8 0
54 10 0
56.1667 8 0
56.1667 10 0
54 10 0
54 12 0
56.1667 10 0
56.1667 12 0
54 12 0
54 14 0
56.1667 12 0
56.1667 14 0
54 14 0
54 16 0
56.1667 14 0
56.1667 16 0
54 16 0
54 18 0
56.1667 16 0
56.1667 18 0
56.1667 2 0
56.1667 4 0
60 2 0
60 4 0
56.1667 4 0
56.1667 6 0
60 4 0
60 6 0
56.1667 6 0
56.1667 8 0
60 6 0
60 8 0
56.1667 8 0
56.1667 10 0
60 8 0
60 10 0
56.1667 10 0
56.1667 12 0
60 10 0
60 12 0
56.1667 12 0
56.1667 14 0
60 12 0
60 14 0
56.1667 14 0
56.1667 16 0
60 14 0
60 16 0
56.1667 16 0
56.1667 18 0
60 16 0
60 18 0
46 16 0
46 17 0
48 16 0
48 17 0
46 17 0
46 18 0
48 17 0
48 18 0
46 14 0
46 15 0
48 14 0
48 15 0
46 15 0
46 16 0
48 15 0
48 16 0
46 12 0
46 13 0
48 12 0
48 13 0
46 13 0
46 14 0
48 13 0
48 14 0
46 10 0
46 11 0
48 10 0
48 11 0
46 11 0
46 12 0
48 11 0
48 12 0
46 8 0
46 9 0
48 8 0
48 9 0
46 9 0
46 10 0
48 9 0
48 10 0
46 6 0
46 7 0
48 6 0
48 7 0
46 7 0
46 8 0
48 7 0
48 8 0
44 18 0
44 19 0
45 18 0
45 19 0
45 18 0
45 19 0
46 18 0
46 19 0
44 16 0
44 17 0
45 16 0
45 17 0
44 17 0
44 18 0
45 17 0
45 18 0
45 17 0
45 18 0
46 17 0
46 18 0
45 16 0
45 17 0
46 16 0
46 17 0
44 14 0
44 15 0
45 14 0
45 15 0
44 15 0
44 16 0
45 15 0
45 16 0
45 15 0
45 16 0
46 15 0
46 16 0
45 14 0
45 15 0
46 14 0
46 15 0
44 12 0
44 13 0
45 12 0
45 13 0
44 13 0
44 14 0
45 13 0
45 14 0
45 13 0
45 14 0
46 13 0
46 14 0
45 12 0
45 13 0
46 12 0
46 13 0
44 10 0
44 11 0
45 10 0
45 11 0
44 11 0
44 12 0
45 11 0
45 12 0
45 11 0
45 12 0
46 11 0
46 12 0
45 10 0
45 11 0
46 10 0
46 11 0
44 8 0
44 9 0
45 8 0
45 9 0
44 9 0
44 10 0
45 9 0
45 10 0
45 9 0
45 10 0
46 9 0
46 10 0
45 8 0
45 9 0
46 8 0
46 9 0
44 6 0
44 7 0
45 6 0
45 7 0
45 6 0
45 7 0
46 6 0
46 7 0
44 7 0
44 8 0
45 7 0
45 8 0
45 7 0
45 8 0
46 7 0
46 8 0
44 5 0
44 6 0
46 5 0
46 6 0
42 18 0
42 19 0
43 18 0
43 19 0
43 18 0
43 19 0
44 18 0
44 19 0
42 16 0
42 17 0
43 16 0
43 17 0
42 17 0
42 18 0
43 17 0
43 18 0
43 17 0
43 18 0
44 17 0
44 18 0
43 16 0
43 17 0
44 16 0
44 17 0
42 14 0
42 15 0
43 14 0
43 15 0
42 15 0
42 16 0
43 15 0
43 16 0
43 15 0
43 16 0
44 15 0
44 16 0
43 14 0
43 15 0
44 14 0
44 15 0
42 12 0
42 13 0
43 12 0
43 13 0
42 13 0
42 14 0
43 13 0
43 14 0
43 13 0
43 14 0
44 13 0
44 14 0
43 12 0
43 13 0
44 12 0
44 13 0
42 10 0
42 11 0
43 10 0
43 11 0
42 11 0
42 12 0
43 11 0
43 12 0
43 11 0
43 12 0
44 11 0
44 12 0
43 10 0
43 11 0
44 10 0
44 11 0
42 8 0
42 9 0
43 8 0
43 9 0
42 9 0
42 10 0
43 9 0
43 10 0
43 9 0
43 10 0
44 9 0
44 10 0
43 8 0
43 9 0
44 8 0
44 9 0
42 6 0
42 7 0
43 6 0
43 7 0
42 7 0
42 8 0
43 7 0
43 8 0
43 7 0
43 8 0
44 7 0
44 8 0
43 6 0
43 7 0
44 6 0
44 7 0
42 5 0
42 6 0
43 5 0
43 6 0
43 5 0
43 6 0
44 5 0
44 6 0
40 16 0
40 17 0
41 16 0
41 17 0
41 17 0
41 18 0
42 17 0
42 18 0
41 16 0
41 17 0
42 16 0
42 17 0
40 14 0
40 15 0
41 14 0
41 15 0
40 15 0
40 16 0
41 15 0
41 16 0
41 15 0
41 16 0
42 15 0
42 16 0
41 14 0
41 15 0
42 14 0
42 15 0
40 12 0
40 13 0
41 12 0
41 13 0
40 13 0
[...]
POINT_DATA 10292
SCALARS phi float 1
LOOKUP_TABLE default
4.04417e-07
4.08607e-07
-4.97579e-07
-6.57283e-07
4.08607e-07
-5.40546e-07
-6.57283e-07
5.71479e-07
-5.40546e-07
8.5314e-07
5.71478e-07
-7.04447e-07
8.53141e-07
-1.50671e-06
-7.04447e-07
1.04496e-06
-1.50671e-06
2.88629e-06
1.04496e-06
-3.1928e-06
2.88629e-06
-5.35151e-06
-3.1928e-06
3.51417e-06
-5.35151e-06
-2.64247e-06
3.51417e-06
6.04765e-06
-4.97579e-07
-6.57283e-07
-1.95417e-07
-2.27309e-07
-6.57283e-07
5.71478e-07
-2.27309e-07
2.95912e-07
5.71478e-07
-7.04447e-07
2.95912e-07
-4.48666e-07
-7.04447e-07
1.04496e-06
-4.48666e-07
7.40496e-07
1.04496e-06
-3.1928e-06
7.40496e-07
-1.49311e-06
-3.1928e-06
3.51417e-06
-1.49311e-06
2.07369e-06
3.51418e-06
6.04765e-06
2.07369e-06
-2.95408e-07
6.04765e-06
6.7671e-05
-2.95408e-07
1.17753e-05
6.7671e-05
2.25185e-05
1.17753e-05
-2.25225e-05
-1.95417e-07
-2.27309e-07
-2.59256e-07
-1.87877e-07
-2.27309e-07
2.95912e-07
-1.87877e-07
4.62103e-07
2.95912e-07
-4.48666e-07
4.62103e-07
-8.72723e-07
-4.48666e-07
7.40496e-07
-8.72723e-07
1.66793e-06
7.40496e-07
-1.49311e-06
1.66793e-06
-2.60617e-06
-1.49311e-06
2.07369e-06
-2.60617e-06
4.71184e-06
2.07369e-06
-2.95409e-07
4.71184e-06
-8.10404e-06
-2.95408e-07
1.17753e-05
-8.10404e-06
1.45155e-05
1.17753e-05
-2.25225e-05
1.45155e-05
2.01172e-05
-2.25225e-05
7.68753e-06
2.01172e-05
-2.08003e-05
7.68753e-06
-5.8826e-06
-2.08003e-05
-1.81029e-05
-5.8826e-06
0.0001047
-1.81029e-05
7.68379e-05
0.0001047
-5.204e-05
7.68379e-05
-2.04609e-05
-2.59256e-07
-1.87877e-07
7.00706e-08
7.36088e-08
-1.87877e-07
4.62103e-07
7.36088e-08
-1.01624e-07
4.62103e-07
-8.72723e-07
-1.01624e-07
1.61099e-07
-8.72723e-07
1.66793e-06
1.61099e-07
-2.82378e-07
1.66793e-06
-2.60617e-06
-2.82378e-07
5.60405e-07
-2.60617e-06
4.71184e-06
5.60405e-07
-1.02381e-06
4.71184e-06
-8.10404e-06
-1.02381e-06
1.61944e-06
-8.10404e-06
2.01172e-05
1.61944e-06
-6.57974e-06
2.01172e-05
-2.08003e-05
-6.57974e-06
1.08417e-06
-2.08003e-05
-1.81029e-05
1.08417e-06
6.47631e-06
-1.81029e-05
7.68379e-05
6.47631e-06
1.1908e-06
7.68379e-05
-2.04609e-05
1.1908e-06
1.27805e-05
7.00706e-08
7.36088e-08
-3.40856e-08
-2.93357e-08
7.36088e-08
-1.01624e-07
-2.93357e-08
5.45444e-08
-1.01624e-07
1.61099e-07
5.45444e-08
-9.75454e-08
1.61099e-07
-2.82378e-07
-9.75454e-08
1.82413e-07
-2.82378e-07
5.60405e-07
1.82414e-07
-3.16183e-07
5.60405e-07
-1.02381e-06
-3.16183e-07
5.77559e-07
-1.02381e-06
1.61944e-06
5.77559e-07
-9.30129e-07
1.61944e-06
-6.57974e-06
-9.3013e-07
3.54177e-06
-6.57974e-06
6.47631e-06
3.54177e-06
-2.15369e-06
6.4763e-06
1.27805e-05
-2.15369e-06
-9.22681e-06
-3.40856e-08
-2.93357e-08
1.9202e-08
1.66716e-08
-2.93357e-08
5.45444e-08
1.66716e-08
-3.16364e-08
5.45444e-08
-9.75454e-08
-3.16364e-08
5.88829e-08
-9.75454e-08
1.82413e-07
5.88829e-08
-1.11071e-07
1.82414e-07
-3.16183e-07
-1.11071e-07
1.99058e-07
-3.16183e-07
5.77559e-07
1.99058e-07
-3.71532e-07
5.77559e-07
-9.3013e-07
-3.71532e-07
6.31496e-07
-9.30129e-07
3.54177e-06
6.31496e-07
-2.17358e-06
3.54177e-06
-2.15369e-06
-2.17358e-06
2.5527e-06
-2.15369e-06
-9.22681e-06
2.5527e-06
-1.56938e-05
1.9202e-08
1.66716e-08
1.7332e-08
1.85695e-08
1.66716e-08
-3.16364e-08
1.85695e-08
-2.71125e-08
-3.16364e-08
5.88829e-08
-2.71125e-08
4.39514e-08
5.88829e-08
-1.11071e-07
4.39514e-08
-7.85304e-08
-1.11071e-07
1.99058e-07
-7.85304e-08
1.50317e-07
1.99058e-07
-3.71532e-07
1.50317e-07
-2.82498e-07
-3.71532e-07
6.31496e-07
-2.82498e-07
5.5856e-07
6.31497e-07
-2.17358e-06
5.5856e-07
-5.16527e-07
-2.17358e-06
2.5527e-06
-5.16527e-07
2.05502e-06
1.7332e-08
1.85695e-08
-1.4444e-09
-1.99864e-09
1.85695e-08
-2.71125e-08
-1.99864e-09
1.99875e-09
-2.71125e-08
4.39514e-08
1.99875e-09
-2.4022e-09
4.39514e-08
-7.85304e-08
-2.4022e-09
3.50475e-09
-7.85304e-08
1.50317e-07
3.50475e-09
-9.21264e-09
1.50317e-07
-2.82498e-07
-9.21264e-09
1.85668e-08
-2.82498e-07
5.5856e-07
1.85668e-08
-5.52158e-08
5.5856e-07
-5.16527e-07
-5.52158e-08
-1.91986e-07
-5.16527e-07
2.05502e-06
-1.91986e-07
-2.39524e-07
-1.4444e-09
-1.99864e-09
1.05153e-09
1.40195e-09
-1.99864e-09
1.99875e-09
1.40195e-09
-1.51977e-09
1.99875e-09
-2.4022e-09
-1.51977e-09
2.00881e-09
-2.4022e-09
3.50475e-09
2.00881e-09
-2.94162e-09
3.50475e-09
-9.21264e-09
-2.94161e-09
7.43056e-09
-9.21264e-09
1.85668e-08
7.43056e-09
-1.47613e-08
1.85668e-08
-5.52158e-08
-1.47613e-08
3.96597e-08
-5.52158e-08
-1.91986e-07
3.96597e-08
1.01336e-07
-1.91986e-07
-2.39524e-07
1.01336e-07
1.70616e-07
1.05153e-09
1.40195e-09
-6.94651e-10
-9.33807e-10
1.40195e-09
-1.51977e-09
-9.33807e-10
9.82214e-10
-1.51977e-09
2.00881e-09
9.82214e-10
-1.31491e-09
2.00881e-09
-2.94161e-09
-1.31491e-09
1.58e-09
-2.94161e-09
7.43056e-09
1.58e-09
-5.02512e-09
7.43057e-09
-1.47613e-08
-5.02512e-09
1.02072e-08
-1.47613e-08
3.96597e-08
1.02072e-08
-2.71528e-08
3.96597e-08
1.01336e-07
-2.71528e-08
-6.00634e-08
1.01336e-07
1.70616e-07
-6.00634e-08
-1.1287e-07
-6.94651e-10
-9.33807e-10
-7.54367e-10
-9.30386e-10
-9.33807e-10
9.82215e-10
-9.30386e-10
1.10283e-09
9.82214e-10
-1.31491e-09
1.10283e-09
-1.60357e-09
-1.31491e-09
1.58e-09
-1.60357e-09
2.51184e-09
1.58e-09
-5.02512e-09
2.51184e-09
-5.86961e-09
-5.02512e-09
1.02072e-08
-5.86961e-09
1.15807e-08
1.02072e-08
-2.71528e-08
1.15807e-08
-2.92084e-08
-2.71528e-08
-6.00634e-08
-2.92084e-08
-5.59917e-08
-6.00634e-08
-1.1287e-07
-5.59917e-08
-1.39798e-07
1.27805e-05
3.97936e-05
-9.22681e-06
-4.27328e-05
-2.04609e-05
-4.85959e-05
2.25876e-06
-4.27217e-05
2.25876e-06
-4.27217e-05
1.27805e-05
3.97936e-05
-5.204e-05
-0.000220972
-2.04609e-05
-4.85958e-05
-0.000220972
-0.000394681
-4.85958e-05
-9.6972e-05
-0.000968814
-0.00312775
-3.79067e-05
0.00239877
-3.79065e-05
0.00239877
-0.000394681
0.00109951
0.000190239
-0.000817878
-1.11799e-05
-0.00133374
-1.11799e-05
-0.00133374
-5.20401e-05
-0.000220972
-0.000817878
-0.000968814
-0.00133374
-3.79065e-05
-0.00133374
-3.79065e-05
-0.000220972
-0.000394681
6.91528e-06
8.25618e-05
-5.8826e-06
0.0001047
8.25618e-05
0.000190239
0.0001047
-5.20401e-05
2.25185e-05
4.63606e-05
-2.25225e-05
7.68753e-06
4.63606e-05
6.91528e-06
7.68753e-06
-5.8826e-06
-0.008033
0.000527068
0.00536265
-0.00265593
0.00536265
-0.00265593
-0.000968813
-0.00312775
1.34786e-05
-0.00454143
0.000438582
0.0010572
-0.00454143
-0.008033
0.0010572
0.00536265
0.0010572
0.00536265
-0.000817878
-0.000968813
0.000438582
0.0010572
0.000190239
-0.000817878
8.938e-05
-0.00044695
0.000105728
-7.77502e-05
-0.00044695
1.34786e-05
-7.77503e-05
0.000438582
-7.77503e-05
0.000438582
8.25617e-05
0.000190239
0.000105728
-7.77503e-05
6.91528e-06
8.25617e-05
4.77911e-05
6.31227e-06
8.31346e-05
-0.000149934
8.31346e-05
-0.000149934
2.25185e-05
4.63606e-05
6.31223e-06
8.938e-05
-0.000149934
0.000105728
-0.000149934
0.000105728
4.63606e-05
6.91528e-06
-2.64247e-06
-3.07165e-05
6.04765e-06
6.7671e-05
-3.07165e-05
4.77911e-05
6.7671e-05
2.25185e-05
0.00584102
0.0291035
-0.000251589
0.00963693
0.00963693
0.0190558
-0.00454143
-0.008033
-0.000251589
0.00963693
1.34787e-05
-0.00454143
0.000175004
-0.000857275
-0.000366027
0.00103947
-0.000857275
0.00584102
0.00103947
-0.000251589
0.00103947
-0.000251589
-0.00044695
1.34786e-05
-0.000366027
0.00103947
8.938e-05
-0.00044695
-6.57284e-05
0.000145628
-5.50381e-05
6.92593e-06
0.000145628
0.000175004
6.92594e-06
-0.000366027
6.92588e-06
-0.000366027
6.31226e-06
8.938e-05
-5.50381e-05
6.9259e-06
4.77911e-05
6.31226e-06
1.23491e-05
0.000228817
2.57288e-06
4.21692e-05
2.57288e-06
4.21692e-05
-2.64247e-06
-3.07165e-05
0.000228817
-6.57285e-05
4.21692e-05
-5.50381e-05
4.21692e-05
-5.50381e-05
-3.07165e-05
4.77911e-05
-0.00165761
0.0256303
-0.00431052
0.0146056
0.0146056
0.0283983
-0.000857274
0.00584102
-0.00431052
0.0146056
0.000175004
-0.000857275
0.00263001
-0.00431052
0.000145628
0.000175004
-9.22681e-06
-4.27328e-05
-1.56938e-05
-2.65072e-05
-4.27328e-05
-1.53063e-05
-2.65072e-05
-3.05802e-05
2.5527e-06
-1.56938e-05
2.05502e-06
-9.26662e-06
-1.56938e-05
-2.65072e-05
-9.26662e-06
-8.45574e-06
-2.65072e-05
-3.05802e-05
-8.45574e-06
-9.72746e-06
-3.05802e-05
-9.16266e-05
-9.72746e-06
-1.91298e-05
-9.16266e-05
-0.000154121
-1.91298e-05
-3.01428e-05
-0.000154121
-0.00010065
-3.01428e-05
-3.77819e-05
-0.00010065
-9.16444e-05
-3.77819e-05
-3.27028e-06
-9.16444e-05
-0.000514032
-3.27028e-06
-8.32069e-05
-0.000514032
-0.000554835
-8.32069e-05
-9.63526e-05
-0.000554835
-0.000623484
-9.63526e-05
-0.000123294
-0.000623484
-1.76561e-05
-0.000123294
-4.30166e-05
-1.76561e-05
-0.000248182
-4.30166e-05
-0.000125266
-0.000248182
-0.000164943
-0.000125266
-3.02212e-05
-0.000164943
7.36703e-05
-3.02212e-05
3.49308e-05
7.36703e-05
3.95324e-05
3.49308e-05
1.3183e-05
2.05502e-06
-9.26662e-06
-2.39524e-07
1.53976e-06
-9.26662e-06
-9.72746e-06
1.53976e-06
2.1324e-07
-9.72746e-06
-1.91298e-05
2.1324e-07
-2.72158e-06
-1.91298e-05
-3.01428e-05
-2.72158e-06
-3.38626e-06
-3.01428e-05
-3.77819e-05
-3.38626e-06
-4.94961e-07
-3.77819e-05
-3.27028e-06
-4.94961e-07
-6.22679e-06
-3.27028e-06
-8.32069e-05
-6.22679e-06
-2.74747e-05
-8.32069e-05
-9.63526e-05
-2.74747e-05
-3.65219e-05
-9.63526e-05
-0.000123294
-3.65219e-05
-1.07839e-05
-0.000123294
-4.30166e-05
-1.07839e-05
1.71819e-05
-4.30166e-05
-0.000125266
1.71819e-05
1.41415e-05
-0.000125266
-3.02212e-05
1.41415e-05
-7.05515e-07
-3.02212e-05
3.49308e-05
-7.05515e-07
-3.02382e-06
3.49308e-05
1.3183e-05
-3.02382e-06
-3.68586e-07
-2.39524e-07
1.53976e-06
1.70616e-07
-9.55064e-07
1.53976e-06
2.1324e-07
-9.55064e-07
-9.34948e-08
2.1324e-07
-3.38626e-06
-9.34948e-08
1.64894e-06
-3.38626e-06
-6.22679e-06
1.64894e-06
3.60639e-06
-6.22679e-06
-3.65219e-05
3.60639e-06
1.92848e-05
-3.65219e-05
1.71819e-05
1.92847e-05
-1.02791e-05
1.71819e-05
-7.05514e-07
-1.02791e-05
-8.57039e-07
-7.05517e-07
-3.68586e-07
-8.57038e-07
8.14343e-07
1.70616e-07
-9.55064e-07
-1.1287e-07
5.99552e-07
-9.55063e-07
-9.34948e-08
5.99552e-07
3.29815e-08
-9.34948e-08
1.64894e-06
3.29815e-08
-9.56901e-07
1.64894e-06
3.60639e-06
-9.56901e-07
-2.31003e-06
3.60639e-06
1.92848e-05
-2.31003e-06
-1.15543e-05
1.92848e-05
-1.02791e-05
-1.15543e-05
6.26972e-06
-1.02791e-05
-8.57038e-07
6.26972e-06
1.0802e-06
-8.5704e-07
8.14343e-07
1.0802e-06
-5.03908e-07
-1.1287e-07
5.99552e-07
-1.39798e-07
6.16739e-07
5.99552e-07
3.29815e-08
6.16739e-07
2.01467e-08
3.29815e-08
-9.56901e-07
2.01467e-08
-7.50001e-07
-9.56901e-07
-2.31003e-06
-7.50001e-07
-2.30941e-06
-2.31003e-06
-1.15543e-05
-2.30941e-06
-8.40653e-06
-1.15543e-05
6.26972e-06
-8.40653e-06
5.81755e-06
6.26973e-06
1.0802e-06
5.81755e-06
3.16354e-06
1.0802e-06
-5.03908e-07
3.16354e-06
-8.79052e-07
-6.72331e-05
-1.72465e-06
-0.000164943
7.36703e-05
-1.72465e-06
4.29544e-05
7.36703e-05
3.95324e-05
-8.06044e-05
-0.000247349
-1.76561e-05
-0.000248182
-0.000247349
-6.72331e-05
-0.000248182
-0.000164943
-0.000337661
-1.32583e-05
-0.000554835
-0.000623484
-1.32583e-05
-8.06044e-05
-0.000623484
-1.76561e-05
6.32144e-06
-0.000126891
-9.16444e-05
-0.000514032
-0.000126891
-0.000337661
-0.000514032
-0.000554835
2.23402e-05
-8.80567e-05
-0.000154121
-0.00010065
-8.80567e-05
6.32144e-06
-0.00010065
-9.16444e-05
-1.53063e-05
2.70303e-05
-3.05802e-05
-9.16266e-05
2.70303e-05
2.23402e-05
-9.16266e-05
-0.000154121
0.000270371
0.000330921
0.000102838
0.000109396
0.000102838
0.000109396
4.29544e-05
2.3871e-05
-0.00131889
-0.000437489
-0.000600933
-0.000264136
-0.000437489
0.000270371
-0.000264136
0.000102838
-0.000264136
0.000102838
-1.72465e-06
4.29544e-05
-0.000600933
-0.000264136
-6.72331e-05
-1.72465e-06
0.000649804
1.6914e-05
0.000655353
-0.000525647
1.6914e-05
-0.00131889
-0.000525647
-0.000600933
-0.000525647
-0.000600933
-0.000247349
-6.72331e-05
0.000655353
-0.000525647
-8.06044e-05
-0.000247349
-0.00108122
0.000746294
-0.0023174
0.000634458
0.000746294
0.000649804
0.000634458
0.000655353
0.000634458
0.000655353
-1.32583e-05
-8.06044e-05
-0.0023174
0.000634458
-0.000337661
-1.32583e-05
0.000640172
-0.000269239
0.000400616
-0.000996167
-0.000269239
-0.00108121
-0.000996167
-0.0023174
-0.000996167
-0.0023174
-0.000126891
-0.000337661
0.000400616
-0.000996166
6.32143e-06
-0.000126891
8.08468e-05
-0.000181957
0.000152901
-0.000411039
-0.000181957
0.000640172
-0.000411039
0.000400616
-0.000411039
0.000400616
-8.80567e-05
6.32145e-06
0.000152901
-0.000411039
2.23403e-05
-8.80567e-05
4.41291e-06
6.1952e-05
-4.96151e-05
2.9849e-05
-4.96151e-05
2.9849e-05
-1.53063e-05
2.70303e-05
6.1952e-05
8.08469e-05
2.9849e-05
0.000152901
2.9849e-05
0.000152901
2.70303e-05
2.23402e-05
3.97936e-05
4.4129e-06
-4.27328e-05
-1.53063e-05
0.000819207
0.00100334
-0.000304595
-0.000444884
-0.000304595
-0.000444884
0.000270371
0.000330921
-0.00299291
-0.00125428
0.00185583
0.00049809
-0.00125428
0.000819207
0.00049809
-0.000304595
0.00049809
-0.000304595
-0.000437489
0.000270371
0.00185583
0.00049809
-0.00131889
-0.000437489
0.00863349
0.00287815
-0.000454274
-0.000339367
0.00287815
-0.00299291
-0.000339367
0.00185583
-0.000339367
0.00185583
1.6914e-05
-0.00131889
-0.000454274
-0.000339367
0.000649804
1.6914e-05
0.000812375
0.0089016
3.42929e-06
-0.000865348
0.0089016
0.00863349
-0.000865348
-0.000454274
-0.000865348
-0.000454274
0.000746294
0.000649804
3.42937e-06
-0.000865348
-0.00108121
0.000746294
0.00280164
0.000405551
-0.00101525
-0.000383806
0.000405551
0.000812375
-0.000383806
3.42929e-06
-0.000383806
3.42921e-06
-0.000269239
-0.00108122
-0.00101525
-0.000383806
0.000640172
-0.000269239
7.64144e-05
-0.000348082
-3.84194e-05
-1.07979e-05
-0.000348082
0.00280164
-1.07979e-05
-0.00101525
-1.07979e-05
-0.00101525
-0.000181957
0.000640172
-3.84194e-05
-1.07979e-05
8.08468e-05
-0.000181957
-9.6972e-05
-0.000766672
0.000152479
9.19962e-05
-0.000766672
7.64144e-05
9.19962e-05
-3.84194e-05
9.19962e-05
-3.84194e-05
6.1952e-05
8.08468e-05
0.000152479
9.19962e-05
4.4129e-06
6.1952e-05
-4.85958e-05
-9.6972e-05
-4.27217e-05
0.000152479
-4.27217e-05
0.000152479
3.97936e-05
4.4129e-06
0.106476
0.0142742
0.0187431
0.00282238
0.00282238
-0.00045343
-0.00125428
0.000819207
0.0187431
0.00282238
-0.00299291
-0.00125428
0.386422
0.222776
0.0934104
0.0281258
0.222776
0.106476
0.0281258
0.0187431
0.0281258
0.0187431
0.00287815
-0.00299291
0.0934104
0.0281258
0.00863349
0.00287815
0.204738
0.364135
0.0385671
0.0855761
0.364135
0.386422
0.0855761
0.0934104
0.0855761
0.0934104
0.0089016
0.00863349
0.0385671
0.0855761
0.000812375
0.0089016
0.0170902
0.0713313
-0.00340178
0.0107141
0.0713313
0.204739
0.0107141
0.0385671
0.0107141
0.0385671
0.000405551
0.000812375
-0.00340178
0.0107141
0.00280164
0.000405551
0.00100898
-0.000174001
-0.00118443
0.000617417
-0.000174
0.0170902
0.000617417
-0.00340178
0.000617417
-0.00340178
-0.000348082
0.00280164
-0.00118443
0.000617417
7.64144e-05
-0.000348082
-0.000394681
0.00109951
-0.00069438
-0.0024127
-0.00069438
-0.0024127
-9.6972e-05
-0.000766672
0.00109951
0.00100898
-0.0024127
-0.00118443
-0.0024127
-0.00118443
-0.000766672
7.64144e-05
0.673483
0.593516
0.222776
0.106476
0.645516
0.673483
0.386422
0.222776
0.608118
0.645516
0.364135
0.386422
0.524791
0.608118
0.204739
0.364135
0.248067
0.524791
0.0713313
0.204739
0.0153247
0.248067
0.0170902
0.0713313
0.00551781
0.00331565
-0.00409448
0.00863024
0.00863024
0.0153247
-0.000174001
0.0170902
-0.00409448
0.00863025
0.00100898
-0.000174001
-0.00312775
0.00551781
0.00239877
-0.00409448
0.00239877
-0.00409448
0.00109951
0.00100897
4.72118e-07
5.25192e-07
-1.46961e-06
-2.10629e-06
5.25191e-07
-6.62679e-07
-2.10629e-06
1.49998e-06
-6.62679e-07
9.94548e-07
1.49998e-06
-1.31222e-06
9.94548e-07
-1.55692e-06
-1.31222e-06
1.81683e-06
-1.55692e-06
3.58142e-06
1.81683e-06
-6.56203e-06
3.58142e-06
-6.38023e-06
-6.56203e-06
1.0553e-05
-6.38023e-06
1.51521e-05
1.0553e-05
-2.78659e-05
1.51521e-05
-1.21676e-05
-2.7866e-05
1.05865e-05
-1.46961e-06
-2.10629e-06
4.94841e-07
-7.72828e-08
-2.10629e-06
1.49998e-06
-7.72826e-08
-1.38443e-06
1.49998e-06
-1.31222e-06
-1.38443e-06
3.31891e-06
-1.31222e-06
1.81683e-06
3.31891e-06
-6.92111e-06
1.81683e-06
-6.56203e-06
-6.92111e-06
9.32277e-06
-6.56203e-06
1.0553e-05
9.32277e-06
-1.85041e-05
1.0553e-05
-2.78659e-05
-1.85041e-05
2.96864e-05
-2.78659e-05
1.05865e-05
2.96864e-05
-4.66736e-05
1.05865e-05
0.000247241
-4.66736e-05
0.000209077
0.000247241
0.000724133
0.000209077
0.000195175
4.94841e-07
-7.72826e-08
-1.55219e-06
-1.23344e-06
-7.72827e-08
-1.38443e-06
-1.23344e-06
2.75804e-06
-1.38443e-06
3.31891e-06
2.75804e-06
-5.13933e-06
3.31891e-06
-6.92111e-06
-5.13933e-06
9.87159e-06
-6.92111e-06
9.32277e-06
9.8716e-06
-1.63401e-05
9.32277e-06
-1.85041e-05
-1.63401e-05
3.09637e-05
-1.85041e-05
2.96864e-05
3.09637e-05
-6.03687e-05
2.96864e-05
-4.12937e-05
-6.03687e-05
4.83636e-05
-4.12937e-05
-4.66736e-05
4.83636e-05
1.55195e-05
-4.66736e-05
0.000209077
1.55195e-05
-9.09067e-05
0.000209077
0.000195175
-9.09067e-05
3.70984e-05
-1.55219e-06
-1.23344e-06
3.33448e-08
-5.73374e-08
-1.23344e-06
2.75804e-06
-5.73374e-08
-1.91645e-07
2.75804e-06
-5.13933e-06
-1.91645e-07
5.07519e-07
-5.13933e-06
9.8716e-06
5.07519e-07
-9.77694e-07
9.8716e-06
-1.63401e-05
-9.77695e-07
1.58278e-06
-1.63401e-05
3.09637e-05
1.58278e-06
-1.36433e-06
3.09637e-05
-6.03687e-05
-1.36433e-06
1.08422e-05
-6.03687e-05
4.83636e-05
1.08422e-05
-1.47956e-05
4.83636e-05
1.55195e-05
-1.47956e-05
-8.20305e-05
1.55195e-05
-9.09067e-05
-8.20305e-05
6.68893e-05
-9.09067e-05
3.70984e-05
6.68893e-05
-7.29893e-05
3.33448e-08
-5.73373e-08
1.15411e-06
1.15378e-06
-5.73373e-08
-1.91645e-07
1.15378e-06
-1.67677e-06
-1.91646e-07
5.07519e-07
-1.67677e-06
2.80591e-06
5.07518e-07
-9.77695e-07
2.80591e-06
-4.78634e-06
-9.77695e-07
1.58278e-06
-4.78634e-06
9.29252e-06
1.58278e-06
-1.36433e-06
9.29252e-06
-1.35143e-05
-1.36433e-06
1.08422e-05
-1.35143e-05
-1.82456e-05
1.15411e-06
1.15378e-06
-2.03582e-06
-1.85369e-06
1.15378e-06
-1.67677e-06
-1.85369e-06
2.95799e-06
-1.67677e-06
2.80591e-06
2.95799e-06
-5.05778e-06
2.80591e-06
-4.78634e-06
-5.05778e-06
9.16977e-06
-4.78634e-06
9.29252e-06
9.16977e-06
-1.64242e-05
9.29252e-06
-1.35143e-05
-1.64242e-05
2.6321e-05
-1.35143e-05
-1.82455e-05
2.6321e-05
1.31325e-05
-2.03582e-06
-1.85369e-06
1.71647e-05
1.79042e-05
-1.85369e-06
2.95799e-06
1.79042e-05
-2.5837e-05
2.95799e-06
-5.05778e-06
-2.5837e-05
4.22605e-05
-5.05778e-06
9.16977e-06
4.22605e-05
-7.51094e-05
9.16977e-06
-1.64242e-05
-7.51094e-05
0.00014287
-1.64243e-05
2.6321e-05
0.00014287
-0.000198145
2.6321e-05
1.31326e-05
-0.000198145
-0.000106529
1.71647e-05
1.79042e-05
2.78066e-06
4.22262e-06
1.79042e-05
-2.5837e-05
4.22262e-06
-3.18029e-06
-2.5837e-05
4.22605e-05
-3.1803e-06
3.42077e-06
4.22605e-05
-7.51094e-05
3.42077e-06
-4.61425e-06
-7.51094e-05
0.00014287
-4.61425e-06
1.98596e-05
0.00014287
-0.000198145
1.98596e-05
-1.57081e-05
-0.000198145
-0.000106529
-1.57081e-05
-9.94721e-06
2.78066e-06
4.22262e-06
-2.14218e-06
-2.23267e-06
4.22262e-06
-3.18029e-06
-2.23267e-06
2.99986e-06
-3.18029e-06
3.42077e-06
2.99986e-06
-4.74146e-06
3.42077e-06
-4.61425e-06
-4.74146e-06
8.19164e-06
-4.61425e-06
1.98596e-05
8.19164e-06
-1.55665e-05
1.98596e-05
-1.57081e-05
-1.55665e-05
2.70573e-05
-1.57081e-05
-9.94723e-06
2.70573e-05
1.23491e-05
-2.14218e-06
-2.23267e-06
4.04417e-07
4.08607e-07
-2.23267e-06
2.99986e-06
4.08607e-07
-5.40546e-07
2.99986e-06
-4.74146e-06
-5.40546e-07
8.53141e-07
-4.74146e-06
8.19164e-06
8.53141e-07
-1.50671e-06
8.19164e-06
-1.55665e-05
-1.50671e-06
2.88629e-06
-1.55665e-05
2.70573e-05
2.88629e-06
-5.35151e-06
2.70573e-05
1.23491e-05
-5.35151e-06
-2.64247e-06
-0.000928087
0.00139827
-0.000981984
0.00263001
0.00139827
-0.00165761
0.00263001
-0.00431052
-0.000981984
0.00263001
-6.57285e-05
0.000145627
-9.9472e-06
-0.000805884
1.62279e-05
-0.000375555
1.62279e-05
-0.000375555
1.23491e-05
0.000228817
-0.000805884
-0.000928088
-0.000375555
-0.000981984
-0.000375555
-0.000981984
0.000228817
-6.57284e-05
0.00771813
0.0471508
0.0114833
0.0578416
0.0114833
0.0578416
-0.00165761
0.0256303
0.00105316
-0.00312901
0.00120447
-0.00385384
-0.00312901
0.00771813
-0.00385384
0.0114833
-0.00385384
0.0114833
0.00139827
-0.00165761
0.00120447
-0.00385384
-0.000928087
0.00139827
-0.000106529
-0.00159979
-7.42239e-05
-0.000789907
-7.42239e-05