# vtk DataFile Version 2.0
Hex test
ASCII
DATASET UNSTRUCTURED_GRID
POINTS 6184 float
38 0 0
38 3.83333 0
40 0 0
40 3.83333 0
38 3.83333 0
38 4.97917 0
40 3.83333 0
40 4.97917 0
38 4.97917 0
38 6 0
40 4.97917 0
40 6 0
40 0 0
40 3.83333 0
42 0 0
42 3.83333 0
40 3.83333 0
40 4.97917 0
42 3.83333 0
42 4.97917 0
40 4.97917 0
40 6 0
42 4.97917 0
42 6 0
42 0 0
42 3.83333 0
44 0 0
44 3.83333 0
42 3.83333 0
42 6 0
44 3.83333 0
44 6 0
42 6 0
42 7 0
44 6 0
44 7 0
42 7 0
42 8 0
44 7 0
44 8 0
44 0 0
44 3.83333 0
46 0 0
46 3.83333 0
44 3.83333 0
44 6 0
46 3.83333 0
46 6 0
44 6 0
44 7 0
46 6 0
46 7 0
44 7 0
44 8 0
46 7 0
46 8 0
46 0 0
46 3.83333 0
48 0 0
48 3.83333 0
46 3.83333 0
46 6 0
48 3.83333 0
48 6 0
46 6 0
46 8 0
48 6 0
48 8 0
46 8 0
46 9 0
48 8 0
48 9 0
46 9 0
46 10 0
48 9 0
48 10 0
46 10 0
46 11 0
48 10 0
48 11 0
46 11 0
46 12 0
48 11 0
48 12 0
46 12 0
46 13 0
48 12 0
48 13 0
46 13 0
46 14 0
48 13 0
48 14 0
48 0 0
48 3.83333 0
50.1667 0 0
50.1667 3.83333 0
48 3.83333 0
48 6 0
50.1667 3.83333 0
50.1667 6 0
48 6 0
48 8 0
50.1667 6 0
50.1667 8 0
48 8 0
48 9 0
50.1667 8 0
50.1667 9 0
48 9 0
48 10 0
50.1667 9 0
50.1667 10 0
48 10 0
48 11 0
50.1667 10 0
50.1667 11 0
48 11 0
48 12 0
50.1667 11 0
50.1667 12 0
48 12 0
48 13 0
50.1667 12 0
50.1667 13 0
48 13 0
48 14 0
50.1667 13 0
50.1667 14 0
50.1667 0 0
50.1667 3.83333 0
54 0 0
54 3.83333 0
50.1667 3.83333 0
50.1667 6 0
54 3.83333 0
54 6 0
50.1667 6 0
50.1667 8 0
54 6 0
54 8 0
50.1667 8 0
50.1667 10 0
54 8 0
54 10 0
50.1667 10 0
50.1667 12 0
54 10 0
54 12 0
44 12 0
44 13 0
46 12 0
46 13 0
44 13 0
44 14 0
46 13 0
46 14 0
44 10 0
44 11 0
46 10 0
46 11 0
44 11 0
44 12 0
46 11 0
46 12 0
44 8 0
44 9 0
46 8 0
46 9 0
44 9 0
44 10 0
46 9 0
46 10 0
42 14 0
42 15 0
43 14 0
43 15 0
43 14 0
43 15 0
44 14 0
44 15 0
42 12 0
42 13 0
43 12 0
43 13 0
43 12 0
43 13 0
44 12 0
44 13 0
42 13 0
42 14 0
43 13 0
43 14 0
43 13 0
43 14 0
44 13 0
44 14 0
42 10 0
42 11 0
43 10 0
43 11 0
42 11 0
42 12 0
43 11 0
43 12 0
43 11 0
43 12 0
44 11 0
44 12 0
43 10 0
43 11 0
44 10 0
44 11 0
42 8 0
42 9 0
43 8 0
43 9 0
43 8 0
43 9 0
44 8 0
44 9 0
42 9 0
42 10 0
43 9 0
43 10 0
43 9 0
43 10 0
44 9 0
44 10 0
40 14 0
40 15 0
41 14 0
41 15 0
41 14 0
41 15 0
42 14 0
42 15 0
40 12 0
40 13 0
41 12 0
41 13 0
40 13 0
40 14 0
41 13 0
41 14 0
41 13 0
41 14 0
42 13 0
42 14 0
41 12 0
41 13 0
42 12 0
42 13 0
40 10 0
40 11 0
41 10 0
41 11 0
40 11 0
40 12 0
41 11 0
41 12 0
41 11 0
41 12 0
42 11 0
42 12 0
41 10 0
41 11 0
42 10 0
42 11 0
40 8 0
40 9 0
41 8 0
41 9 0
41 8 0
41 9 0
42 8 0
42 9 0
40 9 0
40 10 0
41 9 0
41 10 0
41 9 0
41 10 0
42 9 0
42 10 0
40 6 0
40 7 0
42 6 0
42 7 0
40 7 0
40 8 0
42 7 0
42 8 0
38 12 0
38 13 0
39 12 0
39 13 0
39 13 0
39 14 0
40 13 0
40 14 0
39 12 0
39 13 0
40 12 0
40 13 0
38 10 0
38 11 0
39 10 0
39 11 0
38 11 0
38 12 0
39 11 0
39 12 0
39 11 0
39 12 0
40 11 0
40 12 0
39 10 0
39 11 0
40 10 0
40 11 0
38 8 0
38 9 0
39 8 0
39 9 0
38 9 0
38 10 0
39 9 0
39 10 0
39 9 0
39 10 0
40 9 0
40 10 0
39 8 0
39 9 0
40 8 0
40 9 0
38 6 0
38 7 0
39 6 0
39 7 0
39 6 0
39 7 0
40 6 0
40 7 0
38 7 0
38 8 0
39 7 0
39 8 0
39 7 0
39 8 0
40 7 0
40 8 0
36 10 0
36 11 0
37 10 0
37 11 0
37 11 0
37 12 0
38 11 0
38 12 0
37 10 0
37 11 0
38 10 0
38 11 0
36 8 0
36 9 0
37 8 0
37 9 0
36 9 0
36 10 0
37 9 0
37 10 0
37 9 0
37 10 0
38 9 0
38 10 0
37 8 0
37 9 0
38 8 0
38 9 0
36 7 0
36 8 0
37 7 0
37 8 0
37 7 0
37 8 0
38 7 0
38 8 0
35 9 0
35 10 0
36 9 0
36 10 0
35 8 0
35 9 0
36 8 0
36 9 0
22 0 0
22 3.83333 0
24 0 0
24 3.83333 0
24 0 0
24 3.83333 0
26 0 0
26 3.83333 0
26 0 0
26 3.83333 0
28 0 0
28 3.83333 0
28 0 0
28 3.83333 0
30 0 0
30 3.83333 0
30 0 0
30 3.83333 0
32 0 0
32 3.83333 0
32 0 0
32 3.83333 0
34 0 0
34 3.83333 0
34 0 0
34 3.83333 0
36 0 0
36 3.83333 0
36 0 0
36 3.83333 0
38 0 0
38 3.83333 0
36 6 0
36 7 0
37 6 0
37 7 0
37 6 0
37 7 0
38 6 0
38 7 0
36 3.83333 0
36 4.97917 0
38 3.83333 0
38 4.97917 0
36 4.97917 0
36 6 0
38 4.97917 0
38 6 0
34 8 0
34 9 0
35 8 0
35 9 0
34 9 0
34 10 0
35 9 0
35 10 0
34 6 0
34 7 0
35 6 0
35 7 0
34 7 0
34 8 0
35 7 0
35 8 0
35 7 0
35 8 0
36 7 0
36 8 0
35 6 0
35 7 0
36 6 0
36 7 0
34 3.83333 0
34 4.97917 0
35 3.83333 0
35 4.97917 0
35 3.83333 0
35 4.97917 0
36 3.83333 0
36 4.97917 0
34 4.97917 0
34 6 0
35 4.97917 0
35 6 0
35 4.97917 0
35 6 0
36 4.97917 0
36 6 0
32 8 0
32 9 0
33 8 0
33 9 0
32 9 0
32 10 0
33 9 0
33 10 0
33 9 0
33 10 0
34 9 0
34 10 0
33 8 0
33 9 0
34 8 0
34 9 0
32 6 0
32 7 0
33 6 0
33 7 0
32 7 0
32 8 0
33 7 0
33 8 0
33 7 0
33 8 0
34 7 0
34 8 0
33 6 0
33 7 0
34 6 0
34 7 0
32 3.83333 0
32 4.97917 0
33 3.83333 0
33 4.97917 0
33 3.83333 0
33 4.97917 0
34 3.83333 0
34 4.97917 0
32 4.97917 0
32 6 0
33 4.97917 0
33 6 0
33 4.97917 0
33 6 0
34 4.97917 0
34 6 0
30 10 0
30 11 0
31 10 0
31 11 0
31 10 0
31 11 0
32 10 0
32 11 0
30 8 0
30 9 0
31 8 0
31 9 0
30 9 0
30 10 0
31 9 0
31 10 0
31 9 0
31 10 0
32 9 0
32 10 0
31 8 0
31 9 0
32 8 0
32 9 0
30 6 0
30 7 0
31 6 0
31 7 0
30 7 0
30 8 0
31 7 0
31 8 0
31 7 0
31 8 0
32 7 0
32 8 0
31 6 0
31 7 0
32 6 0
32 7 0
30 3.83333 0
30 4.97917 0
31 3.83333 0
31 4.97917 0
31 3.83333 0
31 4.97917 0
32 3.83333 0
32 4.97917 0
30 4.97917 0
30 6 0
31 4.97917 0
31 6 0
31 4.97917 0
31 6 0
32 4.97917 0
32 6 0
28 10 0
28 11 0
29 10 0
29 11 0
29 10 0
29 11 0
30 10 0
30 11 0
28 8 0
28 9 0
29 8 0
29 9 0
28 9 0
28 10 0
29 9 0
29 10 0
29 9 0
29 10 0
30 9 0
30 10 0
29 8 0
29 9 0
30 8 0
30 9 0
28 6 0
28 7 0
29 6 0
29 7 0
28 7 0
28 8 0
29 7 0
29 8 0
29 7 0
29 8 0
30 7 0
30 8 0
29 6 0
29 7 0
30 6 0
30 7 0
28 3.83333 0
28 4.97917 0
29 3.83333 0
29 4.97917 0
29 3.83333 0
29 4.97917 0
30 3.83333 0
30 4.97917 0
28 4.97917 0
28 6 0
29 4.97917 0
29 6 0
29 4.97917 0
29 6 0
30 4.97917 0
30 6 0
26 10 0
26 11 0
27 10 0
27 11 0
27 10 0
27 11 0
28 10 0
28 11 0
26 8 0
26 9 0
27 8 0
27 9 0
26 9 0
26 10 0
27 9 0
27 10 0
27 9 0
27 10 0
28 9 0
28 10 0
27 8 0
27 9 0
28 8 0
28 9 0
26 6 0
26 7 0
27 6 0
27 7 0
26 7 0
26 8 0
27 7 0
27 8 0
27 7 0
27 8 0
28 7 0
28 8 0
27 6 0
27 7 0
28 6 0
28 7 0
26 3.83333 0
26 4.97917 0
27 3.83333 0
27 4.97917 0
27 3.83333 0
27 4.97917 0
28 3.83333 0
28 4.97917 0
26 4.97917 0
26 6 0
27 4.97917 0
27 6 0
27 4.97917 0
27 6 0
28 4.97917 0
28 6 0
24 8 0
24 9 0
25 8 0
25 9 0
25 9 0
25 10 0
26 9 0
26 10 0
25 8 0
25 9 0
26 8 0
26 9 0
24 6 0
24 7 0
25 6 0
25 7 0
24 7 0
24 8 0
25 7 0
25 8 0
25 7 0
25 8 0
26 7 0
26 8 0
25 6 0
25 7 0
26 6 0
26 7 0
24 3.83333 0
24 4.97917 0
25 3.83333 0
25 4.97917 0
25 3.83333 0
25 4.97917 0
26 3.83333 0
26 4.97917 0
24 4.97917 0
24 6 0
25 4.97917 0
25 6 0
25 4.97917 0
25 6 0
26 4.97917 0
26 6 0
22 3.83333 0
22 4.97917 0
23 3.83333 0
23 4.97917 0
23 3.83333 0
23 4.97917 0
24 3.83333 0
24 4.97917 0
22 4.97917 0
22 6 0
23 4.97917 0
23 6 0
23 4.97917 0
23 6 0
24 4.97917 0
24 6 0
22 6 0
22 7 0
23 6 0
23 7 0
22 7 0
22 8 0
23 7 0
23 8 0
23 7 0
23 8 0
24 7 0
24 8 0
23 6 0
23 7 0
24 6 0
24 7 0
23 8 0
23 9 0
24 8 0
24 9 0
46 14 0
46 15 0
48 14 0
48 15 0
46 15 0
46 16 0
48 15 0
48 16 0
46 16 0
46 17 0
48 16 0
48 17 0
46 17 0
46 18 0
48 17 0
48 18 0
46 18 0
46 19 0
48 18 0
48 19 0
46 19 0
46 20 0
48 19 0
48 20 0
46 20 0
46 21 0
48 20 0
48 21 0
46 21 0
46 22 0
48 21 0
48 22 0
46 22 0
46 23 0
48 22 0
48 23 0
46 23 0
46 24 0
48 23 0
48 24 0
46 24 0
46 25 0
48 24 0
48 25 0
46 25 0
46 26 0
48 25 0
48 26 0
48 14 0
48 15 0
50.1667 14 0
50.1667 15 0
48 15 0
48 16 0
50.1667 15 0
50.1667 16 0
48 16 0
48 17 0
50.1667 16 0
50.1667 17 0
48 17 0
48 18 0
50.1667 17 0
50.1667 18 0
48 18 0
48 19 0
50.1667 18 0
50.1667 19 0
48 19 0
48 20 0
50.1667 19 0
50.1667 20 0
48 20 0
48 21 0
50.1667 20 0
50.1667 21 0
48 21 0
48 22 0
50.1667 21 0
50.1667 22 0
48 22 0
48 23 0
50.1667 22 0
50.1667 23 0
48 23 0
48 24 0
50.1667 23 0
50.1667 24 0
48 24 0
48 25 0
50.1667 24 0
50.1667 25 0
48 25 0
48 26 0
50.1667 25 0
50.1667 26 0
50.1667 12 0
50.1667 14 0
54 12 0
54 14 0
50.1667 14 0
50.1667 16 0
54 14 0
54 16 0
50.1667 16 0
50.1667 18 0
54 16 0
54 18 0
50.1667 18 0
50.1667 20 0
54 18 0
54 20 0
50.1667 20 0
50.1667 22 0
54 20 0
54 22 0
50.1667 22 0
50.1667 24 0
54 22 0
54 24 0
50.1667 24 0
50.1667 26 0
54 24 0
54 26 0
44 24 0
44 25 0
46 24 0
46 25 0
44 25 0
44 26 0
46 25 0
46 26 0
44 22 0
44 23 0
46 22 0
46 23 0
44 23 0
44 24 0
46 23 0
46 24 0
44 20 0
44 21 0
46 20 0
46 21 0
44 21 0
44 22 0
46 21 0
46 22 0
44 18 0
44 19 0
46 18 0
46 19 0
44 19 0
44 20 0
46 19 0
46 20 0
44 16 0
44 17 0
46 16 0
46 17 0
44 17 0
44 18 0
46 17 0
46 18 0
44 14 0
44 15 0
46 14 0
46 15 0
44 15 0
44 16 0
46 15 0
46 16 0
42 24 0
42 25 0
43 24 0
43 25 0
42 25 0
42 26 0
43 25 0
43 26 0
43 25 0
43 26 0
44 25 0
44 26 0
43 24 0
43 25 0
44 24 0
44 25 0
42 22 0
42 23 0
43 22 0
43 23 0
42 23 0
42 24 0
43 23 0
43 24 0
43 23 0
43 24 0
44 23 0
44 24 0
43 22 0
43 23 0
44 22 0
44 23 0
42 20 0
42 21 0
43 20 0
43 21 0
42 21 0
42 22 0
43 21 0
43 22 0
43 21 0
43 22 0
44 21 0
44 22 0
43 20 0
43 21 0
44 20 0
44 21 0
42 18 0
42 19 0
43 18 0
43 19 0
42 19 0
42 20 0
43 19 0
43 20 0
43 19 0
43 20 0
44 19 0
44 20 0
43 18 0
43 19 0
44 18 0
44 19 0
42 16 0
42 17 0
43 16 0
43 17 0
42 17 0
42 18 0
43 17 0
43 18 0
43 17 0
43 18 0
44 17 0
44 18 0
43 16 0
43 17 0
44 16 0
44 17 0
42 15 0
42 16 0
43 15 0
43 16 0
43 15 0
43 16 0
44 15 0
44 16 0
40 24 0
40 25 0
41 24 0
41 25 0
40 25 0
40 26 0
41 25 0
41 26 0
41 25 0
41 26 0
42 25 0
42 26 0
41 24 0
41 25 0
42 24 0
42 25 0
40 22 0
40 23 0
41 22 0
41 23 0
40 23 0
40 24 0
41 23 0
41 24 0
41 23 0
41 24 0
42 23 0
42 24 0
41 22 0
41 23 0
42 22 0
42 23 0
40 20 0
40 21 0
41 20 0
41 21 0
40 21 0
40 22 0
41 21 0
41 22 0
41 21 0
41 22 0
42 21 0
42 22 0
41 20 0
41 21 0
42 20 0
42 21 0
40 18 0
40 19 0
41 18 0
41 19 0
40 19 0
40 20 0
41 19 0
41 20 0
41 19 0
41 20 0
42 19 0
42 20 0
41 18 0
41 19 0
42 18 0
42 19 0
40 16 0
40 17 0
41 16 0
41 17 0
40 17 0
40 18 0
41 17 0
41 18 0
41 17 0
41 18 0
42 17 0
42 18 0
41 16 0
41 17 0
42 16 0
42 17 0
41 15 0
41 16 0
42 15 0
42 16 0
39 24 0
39 25 0
40 24 0
40 25 0
38 22 0
38 23 0
39 22 0
39 23 0
39 23 0
39 24 0
40 23 0
40 24 0
39 22 0
39 23 0
40 22 0
40 23 0
38 21 0
38 22 0
39 21 0
39 22 0
39 21 0
39 22 0
40 21 0
40 22 0
39 20 0
39 21 0
40 20 0
40 21 0
39 19 0
39 20 0
40 19 0
40 20 0
24 20 0
24 22 0
[...]
POINT_DATA 6184
SCALARS phi float 1
LOOKUP_TABLE default
-9.94094e-05
-9.25412e-05
-4.36619e-05
-4.49184e-05
-9.25412e-05
0.000107389
-4.49184e-05
9.92554e-06
0.000107389
-0.000175292
9.92554e-06
-6.06185e-05
-4.36619e-05
-4.49184e-05
1.96056e-06
4.75258e-06
-4.49184e-05
9.92555e-06
4.75258e-06
1.47934e-05
9.92555e-06
-6.06185e-05
1.47934e-05
1.57982e-05
1.96056e-06
4.75258e-06
-5.92741e-06
-6.26007e-06
4.75258e-06
1.57982e-05
-6.26007e-06
4.2173e-06
1.57982e-05
1.02268e-05
4.2173e-06
-1.71298e-06
1.02268e-05
2.37554e-05
-1.71298e-06
1.73048e-05
-5.92741e-06
-6.26007e-06
4.71328e-06
5.35557e-06
-6.26007e-06
4.2173e-06
5.35557e-06
3.36638e-07
4.2173e-06
-1.71298e-06
3.36639e-07
7.50423e-06
-1.71298e-06
1.73048e-05
7.50423e-06
-1.33761e-05
4.71328e-06
5.35557e-06
-5.59549e-07
-1.68846e-06
5.35557e-06
3.36638e-07
-1.68846e-06
-5.27881e-06
3.36638e-07
-1.33761e-05
-5.27881e-06
5.13659e-06
-1.33761e-05
-7.15757e-05
5.13658e-06
-2.32007e-05
-7.15757e-05
-1.56722e-05
-2.32007e-05
-1.93905e-05
-1.56722e-05
0.000197421
-1.93905e-05
5.36169e-05
0.000197421
0.000110483
5.36169e-05
3.10997e-05
0.000110483
-0.000266052
3.10996e-05
-0.000105212
-0.000266052
-0.000354886
-0.000105212
-6.48249e-05
-5.59549e-07
-1.68846e-06
-1.29348e-06
-1.19728e-06
-1.68846e-06
-5.27881e-06
-1.19728e-06
2.60544e-06
-5.27881e-06
5.13658e-06
2.60544e-06
-5.70618e-06
5.13658e-06
-2.32007e-05
-5.70618e-06
3.10075e-07
-2.32007e-05
-1.93905e-05
3.10075e-07
5.09309e-07
-1.93905e-05
5.36169e-05
5.09309e-07
-1.48749e-05
5.36169e-05
3.10997e-05
-1.48749e-05
-1.34974e-05
3.10997e-05
-0.000105212
-1.34974e-05
2.66564e-05
-0.000105212
-6.48249e-05
2.66564e-05
4.41676e-05
-1.29348e-06
-1.19728e-06
-3.76215e-07
-1.08223e-07
-1.19728e-06
2.60544e-06
-1.08223e-07
2.27764e-06
2.60544e-06
-5.70618e-06
2.27764e-06
-4.6415e-06
-5.70618e-06
5.09308e-07
-4.6415e-06
2.44786e-06
5.09309e-07
-1.34974e-05
2.44786e-06
-6.51076e-06
0.000118317
0.000405139
0.000110483
-0.000266052
0.000405139
0.000130234
-0.000266052
-0.000354886
-5.57469e-06
-3.37752e-05
-1.56722e-05
0.000197421
-3.37753e-05
0.000118317
0.000197421
0.000110483
1.73048e-05
2.27868e-05
-1.33761e-05
-7.15757e-05
2.27868e-05
-5.5747e-06
-7.15757e-05
-1.56722e-05
0.00164075
-9.62824e-06
0.000416185
0.00235236
0.000416185
0.00235236
0.000130233
-0.000250735
0.000375871
0.000546493
0.00045136
-0.00017023
0.00045136
-0.00017023
0.000118317
0.000405139
0.000546493
0.00164075
-0.00017023
0.000416185
-0.00017023
0.000416185
0.000405139
0.000130233
0.000110826
0.000128202
1.99313e-05
0.000320415
0.000128202
0.000375871
0.000320415
0.00045136
0.000320415
0.00045136
-3.37752e-05
0.000118317
1.99313e-05
0.000320415
-5.57469e-06
-3.37752e-05
2.37554e-05
1.36564e-05
2.46619e-05
-1.96104e-05
2.46619e-05
-1.96104e-05
1.73048e-05
2.27868e-05
1.36564e-05
0.000110826
-1.96104e-05
1.99313e-05
-1.96104e-05
1.99313e-05
2.27868e-05
-5.57469e-06
0.00504624
-0.00315261
-0.00231355
0.00238651
-0.00231356
0.00238651
0.00164075
-9.62808e-06
-8.95684e-05
0.000318885
0.000144111
-0.000253902
0.000318886
0.00504624
-0.000253902
-0.00231355
-0.000253902
-0.00231356
0.000546493
0.00164075
0.000144111
-0.000253902
0.000375871
0.000546493
0.00042989
0.000127749
-0.000114094
7.03375e-05
0.000127749
-8.95684e-05
7.03375e-05
0.000144111
7.03375e-05
0.000144111
0.000128202
0.000375871
-0.000114094
7.03375e-05
0.000110826
0.000128202
-2.67058e-05
0.000119898
1.55096e-05
3.70059e-05
1.55096e-05
3.70059e-05
2.37554e-05
1.36564e-05
0.000119898
0.00042989
3.70059e-05
-0.000114094
3.70059e-05
-0.000114094
1.36564e-05
0.000110826
-6.06185e-05
3.23295e-05
1.57982e-05
1.02268e-05
3.23295e-05
-2.67058e-05
1.02268e-05
2.37554e-05
-0.00108595
0.00192421
7.48264e-05
-0.000231563
-0.000231564
-0.0103712
0.000318885
0.00504624
7.48265e-05
-0.000231564
-8.95684e-05
0.000318885
0.00120599
0.00119845
-0.000769379
-0.000251021
0.00119845
-0.00108595
-0.000251021
7.48263e-05
-0.000251021
7.48263e-05
0.000127749
-8.95684e-05
-0.000769379
-0.000251021
0.00042989
0.000127749
-8.50886e-05
0.000683563
-7.12296e-05
-0.000311444
0.000683563
0.00120599
-0.000311444
-0.000769379
-0.000311444
-0.000769379
0.000119898
0.00042989
-7.12296e-05
-0.000311444
-2.67058e-05
0.000119898
-0.000175292
2.10308e-05
-0.000144027
1.94513e-05
-0.000144027
1.94513e-05
-6.06185e-05
3.23295e-05
2.10308e-05
-8.50886e-05
1.94513e-05
-7.12296e-05
1.94513e-05
-7.12296e-05
3.23295e-05
-2.67058e-05
0.00290796
0.00992331
-0.0037999
0.000845491
0.000845491
0.00261218
0.00119845
-0.00108595
-0.0037999
0.000845491
0.00120599
0.00119845
-0.000353708
0.00298416
-0.000410642
-0.000418578
0.00298416
0.00290796
-0.000418578
-0.0037999
-0.000418578
-0.0037999
0.000683563
0.00120599
-0.000410642
-0.000418578
-8.50886e-05
0.000683563
0.000488927
-0.000353708
0.000117417
-0.000410642
0.000117417
-0.000410642
2.10308e-05
-8.50886e-05
-0.00403478
-0.0102012
0.00298416
0.00290796
0.000336597
-0.00403478
-0.000353708
0.00298416
-0.000348254
-0.000177562
-0.00128336
-0.000604162
-0.00128336
-0.000604162
-0.00025558
-0.000134448
-0.00025558
-0.000134448
-0.00370163
-0.00176405
-0.00370163
-0.00176405
-0.000263268
-0.00015139
-0.000263268
-0.00015139
0.000335594
0.000171515
0.000335594
0.000171515
-7.20388e-05
-4.34081e-05
-7.20388e-05
-4.34081e-05
6.53951e-05
2.87412e-05
6.53951e-05
2.87412e-05
-9.94094e-05
-9.25412e-05
7.28578e-08
0.000488927
-9.52352e-05
0.000117417
-9.52352e-05
0.000117417
-0.000175292
2.10308e-05
2.87412e-05
-0.000217383
-9.25412e-05
0.000107389
-0.000217383
7.28562e-08
0.000107389
-0.000175292
0.00386955
0.00159795
0.000336598
-0.00403478
0.00159795
0.0269107
-0.00403478
-0.0102012
0.000409647
-0.000119388
0.000179295
0.000597099
-0.000119388
0.00386955
0.000597099
0.000336597
0.000597099
0.000336597
0.000488927
-0.000353708
0.000179295
0.000597099
7.28564e-08
0.000488927
-4.34081e-05
0.000411201
-9.40341e-06
5.55844e-05
-9.40341e-06
5.55844e-05
2.87412e-05
-0.000217383
0.000411201
0.000409647
5.55844e-05
0.000179295
5.55844e-05
0.000179295
-0.000217383
7.28582e-08
0.00643163
0.0766595
-0.00515371
0.00173417
0.0766595
0.41716
0.00173417
-0.00847765
0.00173417
-0.00847766
0.00159795
0.0269107
-0.00515371
0.00173417
0.00386955
0.00159795
0.000706071
-0.00139019
-0.000776557
0.00260051
-0.00139019
0.00643163
0.00260051
-0.00515371
0.00260051
-0.00515372
-0.000119388
0.00386955
-0.000776557
0.00260051
0.000409647
-0.000119388
0.000171515
-0.000492009
2.92507e-05
-0.000706859
2.92507e-05
-0.000706859
-4.34081e-05
0.000411201
-0.000492009
0.000706071
-0.000706859
-0.000776557
-0.000706859
-0.000776557
0.000411201
0.000409648
0.917877
0.994852
0.752284
0.975969
0.752284
0.975969
0.41716
0.851762
0.0306445
0.426412
0.0147494
0.144549
0.426413
0.917877
0.144549
0.752284
0.144549
0.752284
0.0766595
0.41716
0.0147494
0.144549
0.00643162
0.0766595
-0.00117328
0.000979253
0.00265631
-0.00689712
0.000979253
0.0306445
-0.00689712
0.0147494
-0.00689712
0.0147494
-0.00139019
0.00643162
0.00265631
-0.00689712
0.000706071
-0.00139019
-0.00015139
-0.00033472
0.00024538
0.000169289
0.00024538
0.000169289
0.000171515
-0.000492009
-0.00033472
-0.00117328
0.000169289
0.00265631
0.000169289
0.00265631
-0.000492009
0.000706071
0.978943
0.991767
0.987787
0.992194
0.987787
0.992194
0.917877
0.994852
0.00988508
0.597414
0.0737104
0.710315
0.597414
0.978943
0.710315
0.987787
0.710315
0.987787
0.426412
0.917877
0.0737104
0.710315
0.0306445
0.426412
-0.0104933
0.0205395
-0.00497409
0.00598708
0.0205395
0.00988508
0.00598708
0.0737104
0.00598708
0.0737104
0.000979253
0.0306445
-0.00497409
0.00598708
-0.00117328
0.000979252
-0.00176405
0.00326693
-0.00117885
0.0032618
-0.00117885
0.0032618
-0.00015139
-0.00033472
0.00326693
-0.0104933
0.00326179
-0.00497409
0.00326179
-0.00497409
-0.00033472
-0.00117328
0.893577
0.990427
0.91442
0.981411
0.91442
0.981411
0.978943
0.991767
0.00268806
0.271448
0.00581837
0.276847
0.271448
0.893577
0.276847
0.91442
0.276847
0.91442
0.597414
0.978943
0.00581837
0.276847
0.00988508
0.597414
-0.0017089
0.00404489
-0.00302907
0.00376536
0.00404489
0.00268806
0.00376536
0.00581837
0.00376536
0.00581837
0.0205395
0.00988508
-0.00302907
0.00376536
-0.0104933
0.0205395
-0.000134448
-0.000507753
-0.00103232
0.00403763
-0.00103232
0.00403763
-0.00176405
0.00326693
-0.000507753
-0.0017089
0.00403763
-0.00302907
0.00403763
-0.00302907
0.00326693
-0.0104933
0.00455654
0.269272
0.00364127
0.259657
0.259657
0.898256
0.271448
0.893577
0.00364127
0.259657
0.00268806
0.271448
-0.00230633
0.00365694
-0.00154601
0.00309633
0.00365694
0.00455655
0.00309633
0.00364127
0.00309633
0.00364127
0.00404489
0.00268806
-0.00154601
0.00309633
-0.0017089
0.00404489
-0.000604162
0.00201417
-0.000244575
0.000331294
-0.000244575
0.000331294
-0.000134448
-0.000507753
0.00201417
-0.00230633
0.000331294
-0.00154601
0.000331294
-0.00154601
-0.000507753
-0.0017089
-0.000177562
2.52803e-05
-0.000355617
0.000687458
-0.000355617
0.000687458
-0.000604162
0.00201417
2.52804e-05
-0.00129379
0.000687458
-0.00200541
0.000687458
-0.00200541
0.00201417
-0.00230633
-0.00129379
0.00255508
-0.00200541
0.00395256
0.00255508
0.00754637
0.00395256
0.00136174
0.00395256
0.00136174
0.00365694
0.00455655
-0.00200541
0.00395256
-0.00230633
0.00365694
0.00136174
0.26022
0.00455655
0.269272
-0.000354886
0.000209332
-6.48249e-05
0.000327408
0.000209332
-0.000182724
0.000327408
0.000118921
-0.000182724
-0.00108917
0.000118921
-0.00023271
-0.00108917
-0.00139919
-0.00023271
-0.000449824
-0.00139919
-0.000856049
-0.000449824
-0.000289421
-0.000856049
8.27573e-05
-0.000289421
-3.45255e-05
8.27573e-05
9.02629e-05
-3.45255e-05
-9.81955e-07
9.02629e-05
0.000128326
-9.81955e-07
0.000129492
0.000128326
0.000140752
0.000129492
0.0001372
0.000140752
0.000166346
0.0001372
0.000120383
0.000166346
0.00013276
0.000120383
0.000173288
0.00013276
0.00012456
0.000173288
0.00021116
-6.48249e-05
0.000327408
4.41676e-05
-1.28865e-05
0.000327408
0.000118921
-1.28865e-05
-7.5011e-05
0.000118921
-0.00023271
-7.5011e-05
-6.88491e-05
-0.00023271
-0.000449824
-6.88491e-05
-2.7012e-05
-0.000449824
-0.000289421
-2.7012e-05
7.23671e-07
-0.000289421
-3.45255e-05
7.23671e-07
1.88488e-06
-3.45255e-05
-9.8194e-07
1.88489e-06
-1.95829e-05
-9.8194e-07
0.000129492
-1.95829e-05
-3.13636e-05
0.000129492
0.0001372
-3.13636e-05
-9.18977e-06
0.0001372
0.000120383
-9.18977e-06
1.06431e-05
0.000120383
0.000173288
1.06431e-05
-4.49748e-06
0.000173288
0.00021116
-4.49748e-06
-1.203e-05
-1.34974e-05
4.41676e-05
-6.51077e-06
1.4542e-05
4.41676e-05
-7.5011e-05
1.4542e-05
-7.53872e-05
-7.5011e-05
-2.7012e-05
-7.53872e-05
-8.82628e-05
-2.7012e-05
1.88488e-06
-8.82628e-05
1.74774e-05
1.88489e-06
-3.13636e-05
1.74774e-05
-1.78317e-05
-3.13636e-05
1.06431e-05
-1.78317e-05
8.63256e-06
1.06431e-05
-1.203e-05
8.63256e-06
-2.04678e-05
-0.000273196
-0.000243074
0.000166346
0.00013276
-0.000243074
-0.000235493
0.00013276
0.00012456
-0.000268594
-0.000261983
0.000128326
0.000140752
-0.000261983
-0.000273196
0.000140752
0.000166346
-0.000180311
-0.000227532
8.27572e-05
9.02629e-05
-0.000227532
-0.000268594
9.02629e-05
0.000128326
0.00137419
0.000902581
-0.00139919
-0.000856049
0.000902581
-0.000180311
-0.000856049
8.27572e-05
-4.61466e-05
0.00070958
-0.000182724
-0.00108917
0.00070958
0.00137419
-0.00108917
-0.00139919
0.000130233
-0.000250734
-0.000354886
0.000209332
-0.000250735
-4.61466e-05
0.000209332
-0.000182724
-0.00117493
-0.00115202
0.000517079
0.000492137
-0.00115202
-0.00114121
0.000492137
0.000492385
0.000492137
0.000492385
-0.000243074
-0.000235493
0.000517079
0.000492137
-0.000273196
-0.000243074
-0.001195
-0.00126157
0.000506518
0.00053455
-0.00126157
-0.00117493
0.00053455
0.000517079
0.00053455
0.000517079
-0.000261983
-0.000273196
0.000506517
0.00053455
-0.000268594
-0.000261983
-0.000632418
-0.00115075
0.000271257
0.000495312
-0.00115075
-0.001195
0.000495312
0.000506517
0.000495312
0.000506518
-0.000227532
-0.000268594
0.000271257
0.000495312
-0.000180311
-0.000227532
0.00832064
0.00310557
-0.00344457
-0.00138049
0.00310557
-0.000632418
-0.00138049
0.000271257
-0.00138049
0.000271257
0.000902581
-0.000180311
-0.00344457
-0.00138049
0.00137419
0.000902581
0.00187929
0.00595356
-0.000261653
-0.00241918
0.00595356
0.00832064
-0.00241918
-0.00344457
-0.00241918
-0.00344457
0.00070958
0.00137419
-0.000261653
-0.00241918
-4.61465e-05
0.00070958
-9.62847e-06
0.00187929
0.00235236
-0.000261653
0.00235236
-0.000261653
-0.000250734
-4.61466e-05
0.00165193
0.00122049
0.0024127
0.0023577
0.0012205
0.00183277
0.0023577
0.0023022
0.0023577
0.0023022
-0.00115202
-0.00114121
0.0024127
0.0023577
-0.00117493
-0.00115202
0.00113752
0.000700296
0.00245469
0.00256004
0.000700297
0.00165193
0.00256004
0.0024127
0.00256004
0.0024127
-0.00126157
-0.00117493
0.00245469
0.00256004
-0.001195
-0.00126157
0.00570959
0.00140804
0.0015569
0.00223922
0.00140804
0.00113752
0.00223922
0.00245469
0.00223921
0.00245469
-0.00115075
-0.001195
0.0015569
0.00223922
-0.000632418
-0.00115075
0.0293807
0.0181965
-0.0185459
-0.00673593
0.0181965
0.00570959
-0.00673593
0.0015569
-0.00673593
0.0015569
0.00310557
-0.000632418
-0.0185459
-0.00673593
0.00832064
0.00310557
0.00580894
0.0222739
-0.00255401
-0.012853
0.0222739
0.0293807
-0.012853
-0.0185459
-0.012853
-0.018546
0.00595356
0.00832064
-0.00255401
-0.012853
0.00187929
0.00595356
0.00238651
-0.00255401
-9.62801e-06
0.00187929
0.195165
0.19184
0.00165193
0.00122049
0.758015
0.761191
0.192397
0.19426
0.19426
0.195165
0.000700297
0.00165193
0.192397
0.19426
0.00113752
0.000700296
0.758302
0.758015
0.195954
0.192397
0.195954
0.192397
0.00140804
0.00113752
0.18426
0.195954
0.00570959
0.00140804
0.150273
0.18426
0.0181965
0.00570959
0.999691
0.999792
1.00049
1.00042
1.00008
1.00127
0.999233
1.00152
1.00127
0.999971
1.00152
0.998802
0.999971
1.00047
0.998802
0.999907
1.00047
1.00049
0.999907
0.998707
1.00049
1.00042
0.998707
0.999071
0.999233
1.00152
1.00269
0.999385
1.00152
0.998802
0.999385
1.00191
0.998802
0.999907
1.00191
1.00151
0.999907
0.998707
1.00151
1.00203
0.998707
0.999071
1.00203
1.00158
1.00191
1.00265
0.999744
1.00718
1.00265
1.00151
1.00718
0.998759
1.00151
1.0015
0.998759
0.998633
1.0015
1.00203
0.998633
0.994428
1.00203
1.00158
0.994428
0.998282
0.999744
1.00718
0.984848
1.01011
1.00718
0.998759
1.01011
0.999839
0.998759
0.998633
0.999839
1.00881
0.998633
0.994428
1.00881
1.00799
0.994428
0.995192
1.00799
1.00555
0.995192
0.998282
1.00555
1.00605
1.00799
1.00555
0.98906
0.993133
1.00555
1.00605
0.993133
0.993034
-0.00315261
0.00580894
0.00238651
-0.00255401
0.758011
0.758302
0.18426
0.195954
0.804111
0.777668
0.0972296
0.150273
0.777668
0.758011
0.150273
0.18426
0.0972296
0.150273
0.0293807
0.0181965
0.312696
0.644095
0.0184092
0.0627167
0.644095
0.804111
0.0627167
0.0972296
0.0627167
0.0972296
0.0222739
0.0293807
0.0184092
0.0627167
0.00580894
0.0222739
0.0154728
0.0412118
-0.0103712
0.00828708
0.0412118
0.312696
0.00828708
0.0184092
0.00828708
0.0184092
-0.00315261
0.00580894
-0.0103712
0.00828708
0.00504624
-0.00315261
0.00192421
0.0154728
-0.000231564
-0.0103712
0.98906
0.993133
0.758011
0.758302
0.993133
0.993034
0.758302
0.758015
0.999514
0.982596
0.990305
1.00711
0.990305
1.00711
0.804111
0.777668
0.982596
0.98906
1.00711
1.00466
1.00711
1.00466
0.777668
0.758011
0.934831
0.984092
0.825227
0.969025
0.984092
0.999514
0.969025
0.990305
0.969025
0.990305
0.644095
0.804111
0.825226
0.969025
0.312696
0.644095
0.651435
0.769291
0.0600761
0.344168
0.769291
0.934831
0.344168
0.825227
0.344168
0.825226
0.0412118
0.312696
0.0600761
0.344168
0.0154728
0.0412118
0.0516028
0.315938
0.00261218
0.0372916
0.315938
0.651435
0.0372916
0.0600761
0.0372916
0.0600761
0.00192421
0.0154728
0.00261218
0.0372916
-0.00108595
0.00192421
0.00992331
0.0516028
0.000845491
0.00261218
0.999839
1.00881
0.999514
0.982596
1.00881
1.00799
0.982596
0.98906
0.984848
1.01011
0.934831
0.984092
1.01011
0.999839
0.984092
0.999514
0.989763
0.995777
0.966786
0.958631
0.966786
0.958631
0.651435
0.769291
0.995777
0.984848
0.958631
0.955057
0.958631
0.955057
0.769291
0.934831
0.651431
0.968695
0.296115
0.817303
0.968695
0.989763
0.817303
0.966786
0.817303
0.966786
0.315938
0.651435
0.296115
0.817303
0.0516028
0.315938
0.0269107
0.0662068
-0.0102012
0.0160494
0.0662068
0.651431
0.0160494
0.296115
0.0160494
0.296115
0.00992331
0.0516028
-0.0102012
0.0160494
0.00290796
0.00992331
0.9992
0.996701
1.00515
1.00336
1.00515
1.00336
0.989763
0.995777
0.996701
0.999744
1.00336
0.997913
1.00336
0.997913
0.995777
0.984848
0.946154
0.980702
0.791586
0.971732
0.980702
0.9992
0.971732
1.00515
0.971732
1.00515
0.968695
0.989763
0.791586
0.971732
0.651431
0.968695
0.41716
0.851762
-0.00847766
0.29061
0.851762
0.946154
0.29061
0.791586
0.29061
0.791586
0.0662068
0.651431
-0.00847766
0.29061
0.0269107
0.0662068
1.00269
0.999385
0.999199
0.996701
0.999385
1.00191
0.996701
0.999744
1.00687
1.00171
0.991828
0.995093
0.991828
0.995093
0.946154
0.980702
1.00171
1.00269
0.995093
0.998088
0.995093
0.998088
0.980702
0.9992
0.994852
1.00687
0.975969
0.991828
0.975969
0.991828
0.851762
0.946154
1.00965
0.992895
1.00494
0.996218
1.00494
0.996218
1.00687
1.00171
0.992895
0.999233
0.996218
1.00208
0.996218
1.00208
1.00171
1.00269
0.991767
1.00965
0.992194
1.00494
0.992194
1.00494
0.994852
1.00687
1.00116
1.00202
1.00104
1.00265
1.00202
0.999219
1.00265
1.00014
1.00104
1.00265
1.00059
1.00126
1.00265
1.00014
1.00126
0.999684
1.00297
0.99837
1.00044
1.0006
0.99837
1.00059
1.0006
0.999696
1.00059
0.999684
0.999696
1.00024
0.999684
1.00051
1.00024
0.999858
1.00044
1.0006
0.999513
1.00115
1.0006
0.999696
1.00115
0.999536
0.999696
1.00024
0.999535
1.00009
1.00024
0.999857
1.00009
0.999691
0.999513
0.999536
1.00008
0.999971
0.999536
1.00009
0.999971
1.00047
1.00009
0.999691
1.00047
1.00049
-0.00993636
0.101798
0.271476
0.712661
0.21154
0.705391
0.771714
0.90736
0.101798
0.21154
0.712661
0.771714
0.271476
0.712661
0.859605
0.976438
0.859605
0.976438
0.971467
0.993322
0.320224
0.859605
0.742978
0.971467
0.712661
0.771714
0.976438
0.979244
0.771714
0.90736
0.979244
0.963254
0.979244
0.963253
1.00096
0.990566
0.976438
0.979244
0.993322
1.00096
0.90736
0.988903
0.963254
1.01047
0.963253
1.01047
0.990566
1.00138
0.153555
0.774814
0.718891
0.912875
0.742978
0.971467
0.774814
0.98697
0.971467
0.993322
0.98697
1.00482
0.98697
1.00482
0.973947
0.994917
0.774814
0.98697
0.912875
0.973947
0.993321
1.00096
1.00482
1.00324
1.00482
1.00324
0.994917
1.003
1.00096
0.990566
1.00324
1.00031
1.00324
1.00031
1.003
1.00116
0.990566
1.00138
1.00116
1.00202
0.718891
0.912875
0.975402
0.98608
0.975402
0.98608
0.981717
1.00368
0.635278
0.975402
0.87769
0.981717
0.912875
0.973947
0.98608
1.01053
0.973947
0.994917
1.01053
0.997967
1.01053
0.997967
0.99962
1.00063
0.98608
1.01053
1.00368
0.99962
0.994917
1.003
0.997967
1.0013
0.997967
1.0013
1.00063
1.00115
1.003
1.00116
1.0013
1.001
1.0013
1.001
1.00115
1.00104
0.273047
0.87769
0.623639
0.977407
0.623639
0.977407
0.588231
0.963458
0.87769
0.981717
0.977407
0.992779
0.981717
1.00368
0.992779
1.00891
0.992779
1.00891
0.989897
1.00642
0.977407
0.992779
0.963458
0.989897
1.00368
0.99962
1.00891
0.990186
1.00891
0.990186
1.00642
0.994533
0.99962
1.00063
0.990186
1.00215
0.990186
1.00215
0.994533
1.00297
1.00063
1.00115
1.00297
0.99837
1.00115
1.00104
0.99837
1.00059
0.00673429
-0.00191038
0.00255508
0.00754637
0.0529915
0.588231
-0.00191038
0.281996
0.588231
0.963458
0.281996
0.912841
0.281996
0.912841
0.273687
0.894588
-0.00191038
0.281996
0.00754637
0.273687
0.963458
0.989897
0.912841
0.984748
0.989897
1.00642
0.984748
1.00767
0.984748
1.00767
0.988739
1.00473
0.912841
0.984748
0.894588
0.988739
1.00642
0.994533
1.00767
0.998488
1.00767
0.998488
1.00473
0.996876
0.994533
1.00297
0.998488
1.00203
0.998488
1.00203
0.996876
1.00044
1.0044
0.998789
1.00762
0.996048
1.00762
0.996048
1.00965
0.992895
0.998789
1.00008
0.996048
0.999045
0.996048
0.999045
0.992895
0.999233
0.990427
1.0044
0.981411
1.00762
0.981411
1.00762
0.991767
1.00965
1.00494
0.997454
1.00493
0.999606
1.00493
0.999606
1.0044
0.998789
0.997454
0.999513
0.999606
1.00005
0.999606