# vtk DataFile Version 2.0
Hex test
ASCII
DATASET UNSTRUCTURED_GRID
POINTS 10460 float
8 -18 0
8 -14.1667 0
10 -18 0
10 -14.1667 0
8 -14.1667 0
8 -12 0
10 -14.1667 0
10 -12 0
8 -12 0
8 -10 0
10 -12 0
10 -10 0
8 -10 0
8 -8 0
10 -10 0
10 -8 0
8 -8 0
8 -6 0
10 -8 0
10 -6 0
8 -6 0
8 -4 0
10 -6 0
10 -4 0
10 -18 0
10 -14.1667 0
12 -18 0
12 -14.1667 0
10 -14.1667 0
10 -12 0
12 -14.1667 0
12 -12 0
10 -12 0
10 -10 0
12 -12 0
12 -10 0
10 -10 0
10 -8 0
12 -10 0
12 -8 0
10 -8 0
10 -6 0
12 -8 0
12 -6 0
10 -6 0
10 -4 0
12 -6 0
12 -4 0
10 -4 0
10 -2 0
12 -4 0
12 -2 0
12 -18 0
12 -14.1667 0
14 -18 0
14 -14.1667 0
12 -14.1667 0
12 -12 0
14 -14.1667 0
14 -12 0
12 -12 0
12 -10 0
14 -12 0
14 -10 0
12 -10 0
12 -8 0
14 -10 0
14 -8 0
12 -8 0
12 -6 0
14 -8 0
14 -6 0
12 -6 0
12 -4 0
14 -6 0
14 -4 0
12 -4 0
12 -2 0
14 -4 0
14 -2 0
12 -2 0
12 5.55112e-17 0
14 -2 0
14 3.46945e-17 0
14 -18 0
14 -14.1667 0
16 -18 0
16 -14.1667 0
14 -14.1667 0
14 -12 0
16 -14.1667 0
16 -12 0
14 -12 0
14 -10 0
16 -12 0
16 -10 0
14 -10 0
14 -8 0
16 -10 0
16 -8 0
14 -8 0
14 -6 0
16 -8 0
16 -6 0
14 -6 0
14 -4 0
16 -6 0
16 -4 0
14 -4 0
14 -2 0
16 -4 0
16 -2 0
14 -2 0
14 5.55112e-17 0
16 -2 0
16 3.46945e-17 0
16 -18 0
16 -14.1667 0
18 -18 0
18 -14.1667 0
16 -14.1667 0
16 -12 0
18 -14.1667 0
18 -12 0
16 -12 0
16 -10 0
18 -12 0
18 -10 0
16 -10 0
16 -8 0
18 -10 0
18 -8 0
16 -8 0
16 -6 0
18 -8 0
18 -6 0
16 -6 0
16 -4 0
18 -6 0
18 -4 0
16 -4 0
16 -2 0
18 -4 0
18 -2 0
16 -2 0
16 5.55112e-17 0
18 -2 0
18 3.46945e-17 0
18 -18 0
18 -14.1667 0
20 -18 0
20 -14.1667 0
18 -14.1667 0
18 -12 0
20 -14.1667 0
20 -12 0
18 -12 0
18 -10 0
20 -12 0
20 -10 0
18 -10 0
18 -8 0
20 -10 0
20 -8 0
18 -8 0
18 -6 0
20 -8 0
20 -6 0
18 -6 0
18 -4 0
20 -6 0
20 -4 0
18 -4 0
18 -2 0
20 -4 0
20 -2 0
18 -2 0
18 5.55112e-17 0
20 -2 0
20 3.46945e-17 0
20 -18 0
20 -14.1667 0
22 -18 0
22 -14.1667 0
20 -14.1667 0
20 -12 0
22 -14.1667 0
22 -12 0
20 -12 0
20 -10 0
22 -12 0
22 -10 0
20 -10 0
20 -8 0
22 -10 0
22 -8 0
20 -8 0
20 -6 0
22 -8 0
22 -6 0
20 -6 0
20 -4 0
22 -6 0
22 -4 0
20 -4 0
20 -2 0
22 -4 0
22 -2 0
20 -2 0
20 -1 0
22 -2 0
22 -1 0
20 -1 0
20 6.245e-17 0
22 -1 0
22 5.55112e-17 0
20 2.77556e-17 0
20 1 0
22 2.77556e-17 0
22 1 0
20 1 0
20 2 0
22 1 0
22 2 0
22 -18 0
22 -14.1667 0
24 -18 0
24 -14.1667 0
22 -14.1667 0
22 -12 0
24 -14.1667 0
24 -12 0
22 -12 0
22 -10 0
24 -12 0
24 -10 0
22 -10 0
22 -8 0
24 -10 0
24 -8 0
22 -8 0
22 -6 0
24 -8 0
24 -6 0
22 -6 0
22 -4 0
24 -6 0
24 -4 0
22 -4 0
22 -2 0
24 -4 0
24 -2 0
22 -2 0
22 -1 0
24 -2 0
24 -1 0
22 -1 0
22 4.16334e-17 0
24 -1 0
24 -6.93889e-18 0
22 1.38778e-17 0
22 1 0
24 -6.93889e-18 0
24 1 0
22 1 0
22 2 0
24 1 0
24 2 0
24 -18 0
24 -14.1667 0
26 -18 0
26 -14.1667 0
24 -14.1667 0
24 -12 0
26 -14.1667 0
26 -12 0
24 -12 0
24 -10 0
26 -12 0
26 -10 0
24 -10 0
24 -8 0
26 -10 0
26 -8 0
24 -8 0
24 -6 0
26 -8 0
26 -6 0
24 -6 0
24 -4 0
26 -6 0
26 -4 0
24 -4 0
24 -2 0
26 -4 0
26 -2 0
26 -4 0
26 -2 0
28 -4 0
28 -2 0
28 2 0
28 3 0
29 2 0
29 3 0
28 3 0
28 4 0
29 3 0
29 4 0
29 2 0
29 3 0
30 2 0
30 3 0
28 1 0
28 2 0
29 1 0
29 2 0
26 4 0
26 5 0
27 4 0
27 5 0
27 4 0
27 5 0
28 4 0
28 5 0
26 2 0
26 3 0
27 2 0
27 3 0
26 3 0
26 4 0
27 3 0
27 4 0
27 3 0
27 4 0
28 3 0
28 4 0
27 2 0
27 3 0
28 2 0
28 3 0
26 1.04083e-17 0
26 1 0
27 -1.21431e-17 0
27 1 0
26 1 0
26 2 0
27 1 0
27 2 0
27 1 0
27 2 0
28 1 0
28 2 0
27 3.46945e-18 0
27 1 0
28 1.38778e-17 0
28 1 0
26 -2 0
26 -1 0
27 -2 0
27 -1 0
27 -2 0
27 -1 0
28 -2 0
28 -1 0
26 -1 0
26 -3.1225e-17 0
27 -1 0
27 1.56125e-17 0
27 -1 0
27 1.56125e-17 0
28 -1 0
28 -1.38778e-17 0
24 4 0
24 5 0
25 4 0
25 5 0
24 5 0
24 6 0
25 5 0
25 6 0
25 5 0
25 6 0
26 5 0
26 6 0
25 4 0
25 5 0
26 4 0
26 5 0
24 2 0
24 3 0
25 2 0
25 3 0
25 2 0
25 3 0
26 2 0
26 3 0
24 3 0
24 4 0
25 3 0
25 4 0
25 3 0
25 4 0
26 3 0
26 4 0
24 -6.93889e-18 0
24 1 0
26 0 0
26 1 0
24 1 0
24 2 0
26 1 0
26 2 0
24 -2 0
24 -1 0
26 -2 0
26 -1 0
24 -1 0
24 -2.08167e-17 0
26 -1 0
26 0 0
22 6 0
22 7 0
23 6 0
23 7 0
22 4 0
22 5 0
23 4 0
23 5 0
22 5 0
22 6 0
23 5 0
23 6 0
23 5 0
23 6 0
24 5 0
24 6 0
23 4 0
23 5 0
24 4 0
24 5 0
22 2 0
22 3 0
23 2 0
23 3 0
23 2 0
23 3 0
24 2 0
24 3 0
22 3 0
22 4 0
23 3 0
23 4 0
23 3 0
23 4 0
24 3 0
24 4 0
20 6 0
20 7 0
21 6 0
21 7 0
21 6 0
21 7 0
22 6 0
22 7 0
20 4 0
20 5 0
21 4 0
21 5 0
20 5 0
20 6 0
21 5 0
21 6 0
21 5 0
21 6 0
22 5 0
22 6 0
21 4 0
21 5 0
22 4 0
22 5 0
20 2 0
20 3 0
21 2 0
21 3 0
21 2 0
21 3 0
22 2 0
22 3 0
20 3 0
20 4 0
21 3 0
21 4 0
21 3 0
21 4 0
22 3 0
22 4 0
18 6 0
18 7 0
19 6 0
19 7 0
19 6 0
19 7 0
20 6 0
20 7 0
18 4 0
18 5 0
19 4 0
19 5 0
18 5 0
18 6 0
19 5 0
19 6 0
19 5 0
19 6 0
20 5 0
20 6 0
19 4 0
19 5 0
20 4 0
20 5 0
18 2 0
18 3 0
19 2 0
19 3 0
19 2 0
19 3 0
20 2 0
20 3 0
18 3 0
18 4 0
19 3 0
19 4 0
19 3 0
19 4 0
20 3 0
20 4 0
18 3.46945e-17 0
18 1 0
20 3.46945e-17 0
20 1 0
18 1 0
18 2 0
20 1 0
20 2 0
16 6 0
16 7 0
17 6 0
17 7 0
17 6 0
17 7 0
18 6 0
18 7 0
16 4 0
16 5 0
17 4 0
17 5 0
16 5 0
16 6 0
17 5 0
17 6 0
17 5 0
17 6 0
18 5 0
18 6 0
17 4 0
17 5 0
18 4 0
18 5 0
16 2 0
16 3 0
17 2 0
17 3 0
16 3 0
16 4 0
17 3 0
17 4 0
17 3 0
17 4 0
18 3 0
18 4 0
17 2 0
17 3 0
18 2 0
18 3 0
16 3.46945e-17 0
16 1 0
17 -2.60209e-18 0
17 1 0
17 -2.60209e-18 0
17 1 0
18 3.46945e-17 0
18 1 0
16 1 0
16 2 0
17 1 0
17 2 0
17 1 0
17 2 0
18 1 0
18 2 0
15 4 0
15 5 0
16 4 0
16 5 0
14 2 0
14 3 0
15 2 0
15 3 0
15 3 0
15 4 0
16 3 0
16 4 0
15 2 0
15 3 0
16 2 0
16 3 0
14 3.46945e-17 0
14 1 0
15 -2.60209e-18 0
15 1 0
15 -2.60209e-18 0
15 1 0
16 3.46945e-17 0
16 1 0
14 1 0
14 2 0
15 1 0
15 2 0
15 1 0
15 2 0
16 1 0
16 2 0
24 14 0
24 16 0
26 14 0
26 16 0
26 14 0
26 16 0
28 14 0
28 16 0
28 12 0
28 13 0
30 12 0
30 13 0
28 13 0
28 14 0
30 13 0
30 14 0
28 14 0
28 16 0
30 14 0
30 16 0
30 12 0
30 13 0
32 12 0
32 13 0
30 13 0
30 14 0
32 13 0
32 14 0
30 15 0
30 16 0
32 15 0
32 16 0
36 12 0
36 13 0
37 12 0
37 13 0
36 10 0
36 11 0
37 10 0
37 11 0
36 11 0
36 12 0
37 11 0
37 12 0
37 11 0
37 12 0
38 11 0
38 12 0
37 10 0
37 11 0
38 10 0
38 11 0
36 8 0
36 9 0
37 8 0
37 9 0
36 9 0
36 10 0
37 9 0
37 10 0
34 12 0
34 13 0
35 12 0
35 13 0
35 12 0
35 13 0
36 12 0
36 13 0
34 10 0
34 11 0
35 10 0
35 11 0
34 11 0
34 12 0
35 11 0
35 12 0
35 11 0
35 12 0
36 11 0
36 12 0
35 10 0
35 11 0
36 10 0
36 11 0
34 8 0
34 9 0
35 8 0
35 9 0
34 9 0
34 10 0
35 9 0
35 10 0
35 9 0
35 10 0
36 9 0
36 10 0
35 8 0
35 9 0
36 8 0
36 9 0
34 6 0
34 7 0
35 6 0
35 7 0
34 7 0
34 8 0
35 7 0
35 8 0
35 7 0
35 8 0
36 7 0
36 8 0
35 6 0
35 7 0
36 6 0
36 7 0
34 4 0
34 5 0
35 4 0
35 5 0
34 5 0
34 6 0
35 5 0
35 6 0
34 3 0
34 4 0
35 3 0
35 4 0
32 12 0
32 13 0
34 12 0
34 13 0
32 13 0
32 14 0
34 13 0
34 14 0
32 10 0
32 11 0
33 10 0
33 11 0
33 10 0
33 11 0
34 10 0
34 11 0
32 11 0
32 12 0
33 11 0
33 12 0
33 11 0
33 12 0
34 11 0
34 12 0
32 8 0
32 9 0
33 8 0
33 9 0
32 9 0
32 10 0
33 9 0
33 10 0
33 9 0
33 10 0
34 9 0
34 10 0
33 8 0
33 9 0
34 8 0
34 9 0
32 6 0
32 7 0
33 6 0
33 7 0
32 7 0
32 8 0
33 7 0
33 8 0
33 7 0
33 8 0
34 7 0
34 8 0
33 6 0
33 7 0
34 6 0
34 7 0
32 4 0
32 5 0
33 4 0
33 5 0
32 5 0
32 6 0
33 5 0
33 6 0
33 5 0
33 6 0
34 5 0
34 6 0
33 4 0
33 5 0
34 4 0
34 5 0
32 3 0
32 4 0
33 3 0
33 4 0
33 3 0
33 4 0
34 3 0
34 4 0
30 10 0
30 11 0
31 10 0
31 11 0
31 10 0
31 11 0
32 10 0
32 11 0
30 11 0
30 12 0
31 11 0
31 12 0
31 11 0
31 12 0
32 11 0
32 12 0
30 8 0
30 9 0
31 8 0
31 9 0
30 9 0
30 10 0
31 9 0
31 10 0
31 9 0
31 10 0
32 9 0
32 10 0
31 8 0
31 9 0
32 8 0
32 9 0
30 6 0
30 7 0
31 6 0
31 7 0
30 7 0
30 8 0
31 7 0
31 8 0
31 7 0
31 8 0
32 7 0
32 8 0
31 6 0
31 7 0
32 6 0
32 7 0
30 4 0
30 5 0
31 4 0
31 5 0
30 5 0
30 6 0
31 5 0
31 6 0
31 5 0
31 6 0
32 5 0
32 6 0
31 4 0
31 5 0
32 4 0
32 5 0
30 3 0
30 4 0
31 3 0
31 4 0
31 3 0
31 4 0
32 3 0
32 4 0
28 10 0
28 11 0
29 10 0
29 11 0
29 10 0
29 11 0
30 10 0
30 11 0
28 11 0
28 12 0
29 11 0
29 12 0
29 11 0
29 12 0
30 11 0
30 12 0
28 8 0
28 9 0
29 8 0
29 9 0
28 9 0
28 10 0
29 9 0
29 10 0
29 9 0
29 10 0
30 9 0
30 10 0
29 8 0
29 9 0
30 8 0
30 9 0
28 6 0
28 7 0
29 6 0
29 7 0
28 7 0
28 8 0
29 7 0
29 8 0
29 7 0
29 8 0
30 7 0
30 8 0
29 6 0
29 7 0
30 6 0
30 7 0
28 4 0
28 5 0
29 4 0
29 5 0
28 5 0
28 6 0
29 5 0
29 6 0
29 5 0
29 6 0
30 5 0
30 6 0
29 4 0
29 5 0
30 4 0
30 5 0
29 3 0
29 4 0
30 3 0
30 4 0
26 12 0
26 13 0
28 12 0
28 13 0
26 13 0
26 14 0
28 13 0
28 14 0
26 10 0
26 11 0
27 10 0
27 11 0
27 10 0
27 11 0
28 10 0
28 11 0
26 11 0
26 12 0
27 11 0
27 12 0
27 11 0
27 12 0
28 11 0
28 12 0
26 8 0
26 9 0
27 8 0
27 9 0
26 9 0
26 10 0
27 9 0
27 10 0
27 9 0
27 10 0
28 9 0
28 10 0
27 8 0
27 9 0
28 8 0
28 9 0
26 6 0
26 7 0
27 6 0
27 7 0
26 7 0
26 8 0
27 7 0
27 8 0
27 7 0
27 8 0
28 7 0
28 8 0
27 6 0
27 7 0
28 6 0
28 7 0
26 5 0
26 6 0
27 5 0
27 6 0
27 5 0
27 6 0
28 5 0
28 6 0
24 12 0
24 13 0
25 12 0
25 13 0
25 12 0
25 13 0
26 12 0
26 13 0
24 13 0
24 14 0
25 13 0
25 14 0
25 13 0
25 14 0
26 13 0
26 14 0
24 10 0
24 11 0
25 10 0
25 11 0
24 11 0
24 12 0
25 11 0
25 12 0
25 11 0
25 12 0
26 11 0
26 12 0
25 10 0
25 11 0
26 10 0
26 11 0
24 8 0
24 9 0
25 8 0
25 9 0
24 9 0
24 10 0
25 9 0
25 10 0
25 9 0
25 10 0
26 9 0
26 10 0
25 8 0
25 9 0
26 8 0
26 9 0
24 6 0
24 7 0
25 6 0
25 7 0
24 7 0
24 8 0
25 7 0
25 8 0
25 7 0
25 8 0
26 7 0
26 8 0
25 6 0
25 7 0
26 6 0
26 7 0
22 12 0
22 13 0
24 12 0
24 13 0
22 13 0
22 14 0
24 13 0
24 14 0
22 10 0
22 11 0
23 10 0
23 11 0
23 10 0
23 11 0
24 10 0
24 11 0
22 11 0
22 12 0
23 11 0
23 12 0
23 11 0
23 12 0
24 11 0
24 12 0
22 8 0
22 9 0
23 8 0
23 9 0
22 9 0
22 10 0
23 9 0
23 10 0
23 9 0
23 10 0
24 9 0
24 10 0
23 8 0
23 9 0
24 8 0
24 9 0
22 7 0
22 8 0
23 7 0
23 8 0
23 7 0
23 8 0
24 7 0
24 8 0
23 6 0
23 7 0
24 6 0
24 7 0
20 12 0
20 13 0
22 12 0
22 13 0
20 10 0
20 11 0
21 10 0
21 11 0
21 10 0
21 11 0
22 10 0
22 11 0
20 11 0
20 12 0
21 11 0
21 12 0
21 11 0
21 12 0
22 11 0
22 12 0
20 8 0
20 9 0
21 8 0
21 9 0
20 9 0
20 10 0
21 9 0
21 10 0
21 9 0
21 10 0
22 9 0
22 10 0
21 8 0
21 9 0
22 8 0
22 9 0
20 7 0
20 8 0
21 7 0
21 8 0
21 7 0
21 8 0
22 7 0
22 8 0
18 10 0
18 11 0
19 10 0
19 11 0
18 11 0
18 12 0
19 11 0
19 12 0
19 11 0
19 12 0
20 11 0
20 12 0
19 10 0
19 11 0
20 10 0
20 11 0
18 8 0
18 9 0
19 8 0
19 9 0
18 9 0
18 10 0
19 9 0
19 10 0
19 9 0
19 10 0
20 9 0
20 10 0
19 8 0
19 9 0
20 8 0
20 9 0
18 7 0
18 8 0
19 7 0
[...]
POINT_DATA 10460
SCALARS phi float 1
LOOKUP_TABLE default
1.0099e-06
1.47276e-06
6.32088e-06
8.91217e-06
1.47276e-06
-1.31654e-06
8.91217e-06
-7.63628e-06
-1.31654e-06
1.63542e-06
-7.63628e-06
9.09157e-06
1.63542e-06
-2.38029e-06
9.09157e-06
-1.22669e-05
-2.38029e-06
7.30956e-06
-1.22669e-05
3.81242e-05
7.30956e-06
-1.38544e-05
3.81242e-05
-6.55299e-05
6.32088e-06
8.91217e-06
8.88471e-06
9.3487e-06
8.91217e-06
-7.63628e-06
9.3487e-06
-1.34289e-05
-7.63628e-06
9.09157e-06
-1.34289e-05
2.17453e-05
9.09157e-06
-1.2267e-05
2.17453e-05
-3.8057e-05
-1.22669e-05
3.81242e-05
-3.80571e-05
7.38722e-05
3.81242e-05
-6.55299e-05
7.38722e-05
-0.000131354
-6.55299e-05
0.000110086
-0.000131354
0.000202851
8.88471e-06
9.3487e-06
-7.75502e-07
-7.14888e-07
9.3487e-06
-1.34289e-05
-7.14888e-07
1.17992e-06
-1.34289e-05
2.17453e-05
1.17992e-06
-2.04125e-06
2.17453e-05
-3.80571e-05
-2.04125e-06
3.7863e-06
-3.80571e-05
7.38722e-05
3.7863e-06
-7.11814e-06
7.38722e-05
-0.000131354
-7.11814e-06
1.31254e-05
-0.000131354
0.000202851
1.31254e-05
-2.06671e-05
0.000202851
7.30607e-05
-2.06671e-05
-3.00443e-06
-7.75502e-07
-7.14888e-07
1.00417e-06
9.49533e-07
-7.14887e-07
1.17992e-06
9.49534e-07
-1.49695e-06
1.17992e-06
-2.04125e-06
-1.49695e-06
2.54531e-06
-2.04125e-06
3.7863e-06
2.54531e-06
-4.60413e-06
3.7863e-06
-7.11814e-06
-4.60413e-06
8.79999e-06
-7.11814e-06
1.31254e-05
8.79999e-06
-1.60444e-05
1.31254e-05
-2.06671e-05
-1.60444e-05
2.57322e-05
-2.06671e-05
-3.00447e-06
2.57322e-05
-9.43385e-06
1.00417e-06
9.49534e-07
-2.39188e-06
-2.50399e-06
9.49533e-07
-1.49695e-06
-2.504e-06
3.58006e-06
-1.49695e-06
2.54531e-06
3.58006e-06
-5.84147e-06
2.54531e-06
-4.60413e-06
-5.84147e-06
1.05602e-05
-4.60413e-06
8.79999e-06
1.05602e-05
-2.06078e-05
8.79999e-06
-1.60444e-05
-2.06078e-05
3.70037e-05
-1.60444e-05
2.57322e-05
3.70037e-05
-6.216e-05
2.57322e-05
-9.43386e-06
-6.216e-05
8.73806e-06
-2.39188e-06
-2.50399e-06
-3.83519e-07
-5.92649e-07
-2.504e-06
3.58006e-06
-5.92649e-07
5.58759e-07
3.58006e-06
-5.84148e-06
5.58759e-07
-6.71324e-07
-5.84147e-06
1.05602e-05
-6.71324e-07
8.55973e-07
1.05602e-05
-2.06078e-05
8.55973e-07
-2.34864e-06
-2.06078e-05
3.70037e-05
-2.34864e-06
3.17884e-06
3.70037e-05
-6.216e-05
3.17884e-06
-1.3775e-05
-6.216e-05
8.73807e-06
-1.3775e-05
-6.03189e-07
-3.83519e-07
-5.92648e-07
-6.59307e-07
-5.4499e-07
-5.92648e-07
5.58759e-07
-5.4499e-07
1.15765e-06
5.58759e-07
-6.71323e-07
1.15765e-06
-2.22766e-06
-6.71323e-07
8.55973e-07
-2.22766e-06
4.41855e-06
8.55973e-07
-2.34864e-06
4.41855e-06
-8.22515e-06
-2.34864e-06
3.17884e-06
-8.22515e-06
1.65847e-05
3.17884e-06
-1.3775e-05
1.65847e-05
-3.5057e-05
-1.3775e-05
-3.09075e-06
-3.5057e-05
5.18079e-05
-3.09075e-06
-6.03194e-07
5.18079e-05
0.000102423
-6.03194e-07
0.000171202
0.000102423
-0.000127193
0.000171202
0.000390581
-0.000127193
2.33469e-05
-6.59307e-07
-5.4499e-07
6.44878e-07
5.9718e-07
-5.4499e-07
1.15765e-06
5.9718e-07
-1.03426e-06
1.15765e-06
-2.22766e-06
-1.03426e-06
1.80613e-06
-2.22766e-06
4.41855e-06
1.80613e-06
-3.2781e-06
4.41855e-06
-8.22515e-06
-3.2781e-06
6.00807e-06
-8.22515e-06
1.65847e-05
6.00807e-06
-9.48371e-06
1.65847e-05
-3.5057e-05
-9.48372e-06
2.28386e-06
-3.5057e-05
5.18079e-05
2.28385e-06
-8.57383e-05
5.18079e-05
0.000102423
-8.57383e-05
-3.22819e-05
0.000102423
-0.000127193
-3.22819e-05
6.15545e-05
-0.000127193
2.33469e-05
6.15545e-05
3.89717e-05
6.44878e-07
5.9718e-07
-1.37931e-06
-1.36715e-06
5.9718e-07
-1.03427e-06
-1.36715e-06
2.24513e-06
-1.03426e-06
1.80613e-06
2.24513e-06
-3.75114e-06
1.80613e-06
-3.2781e-06
-3.75114e-06
6.70398e-06
-3.2781e-06
6.00807e-06
6.70398e-06
-1.16949e-05
6.00807e-06
-9.48371e-06
-1.16949e-05
1.80657e-05
-9.48372e-06
2.28385e-06
1.80658e-05
2.39032e-06
1.80657e-05
2.39031e-06
-5.41606e-05
-2.07028e-05
-0.000707401
-0.0115394
0.012665
0.104868
-0.0115394
-0.0223203
0.104868
0.479486
0.012665
0.104868
0.0262546
0.220572
-7.64071e-06
-0.000707401
-0.00406034
0.012665
-0.0137658
-0.0100118
0.0249602
0.0240562
0.0249602
0.0240562
-0.0223203
0.033541
-2.66256e-05
-0.00261306
0.000160881
0.00682296
-0.00261306
-0.0137658
0.00682296
0.0249602
0.00682296
0.0249602
-0.0115394
-0.0223203
0.000160881
0.00682296
-0.000707402
-0.0115394
-4.38731e-05
-8.8381e-06
4.84515e-05
-4.09373e-05
-8.83809e-06
-2.66256e-05
-4.09373e-05
0.000160881
-4.09373e-05
0.000160881
-7.64087e-06
-0.000707402
4.84515e-05
-4.09373e-05
0.000157542
-7.64083e-06
2.39032e-06
0.000147289
-9.62664e-06
-0.000115708
-9.62664e-06
-0.000115708
-2.07028e-05
-0.0004506
0.000147289
-4.3873e-05
-0.000115708
4.84515e-05
-0.000115708
4.84515e-05
-0.0004506
0.000157542
-0.00359497
-0.00263244
0.00713903
0.00572135
-0.00263244
-0.00181308
0.00572135
0.00334881
0.00572135
0.00334881
-0.0100118
-0.00794147
0.00713903
0.00572135
-0.0137658
-0.0100118
3.89717e-05
-0.000747398
-0.000286752
0.00104747
-0.000286752
0.00104747
-2.66256e-05
-0.00261306
-0.000747398
-0.00359497
0.00104747
0.00713903
0.00104747
0.00713903
-0.00261306
-0.0137658
-3.22819e-05
6.15545e-05
-4.38731e-05
-8.83809e-06
6.15545e-05
3.89717e-05
-8.83809e-06
-2.66256e-05
2.28385e-06
-8.57383e-05
2.39032e-06
0.000147289
-8.57383e-05
-3.22819e-05
0.000147289
-4.38731e-05
-0.0022627
0.0054408
0.000387796
0.00168251
-0.0014113
0.000360245
0.00154657
0.00167373
0.000360245
-0.0022627
0.00167373
0.000387797
0.00167373
0.000387796
-0.00263244
-0.00181308
0.00154657
0.00167373
-0.00359497
-0.00263244
2.33468e-05
0.000107907
0.000101302
0.000849817
0.000101302
0.000849817
3.89717e-05
-0.000747397
0.000107907
-0.0014113
0.000849817
0.00154657
0.000849817
0.00154657
-0.000747398
-0.00359497
0.00915752
0.0394833
-0.00232682
0.0172359
-0.00232682
0.0172359
-0.0022627
0.0054408
0.00128801
-0.0032204
-0.00017231
0.00208981
-0.0032204
0.00915752
0.00208981
-0.00232682
0.00208981
-0.00232682
0.000360245
-0.0022627
-0.000172309
0.00208981
-0.0014113
0.000360245
0.000390581
-0.000285145
0.000106202
-0.000267905
0.000106202
-0.000267905
2.33469e-05
0.000107907
-0.000285145
0.00128801
-0.000267905
-0.00017231
-0.000267905
-0.00017231
0.000107907
-0.0014113
0.0111361
0.0458232
0.0144674
0.0773038
0.0144674
0.0773038
0.00915752
0.0394833
0.00237944
-0.00415513
0.00281836
-0.00475063
-0.00415513
0.0111361
-0.00475063
0.0144674
-0.00475063
0.0144674
-0.0032204
0.00915752
0.00281836
-0.00475063
0.00128801
-0.0032204
0.000673644
-0.00109017
0.000753017
-0.0011607
0.000753017
-0.0011607
0.000390581
-0.000285145
-0.00109017
0.00237944
-0.0011607
0.00281836
-0.0011607
0.00281836
-0.000285145
0.00128801
8.73807e-06
-0.000150236
-6.03204e-07
0.000171202
-0.000150236
0.000673644
0.000171202
0.000390581
-0.00355033
0.00741068
0.00258379
0.0227803
0.00258379
0.0227803
0.0111361
0.0458232
-0.000397727
0.000805276
0.000223333
0.000350542
0.000805276
-0.00355033
0.000350542
0.00258379
0.000350542
0.00258379
-0.00415513
0.0111361
0.000223333
0.000350542
0.00237944
-0.00415513
-0.00022757
0.000586981
-4.58332e-05
0.000601879
0.000586981
-0.000397727
0.000601878
0.000223333
0.000601879
0.000223333
-0.00109017
0.00237944
-4.58333e-05
0.000601879
0.000673644
-0.00109017
-9.43387e-06
9.04073e-05
6.21307e-06
-0.000140131
6.21307e-06
-0.000140131
8.73806e-06
-0.000150236
9.04073e-05
-0.00022757
-0.000140131
-4.58333e-05
-0.000140131
-4.58333e-05
-0.000150236
0.000673644
0.000647699
3.95074e-05
-0.000397727
0.000805277
-5.87111e-05
0.000495978
0.000121996
-9.50906e-05
-9.50906e-05
0.000647699
0.000586981
-0.000397727
0.000121996
-9.50906e-05
-0.00022757
0.000586981
-3.00447e-06
-0.000231798
-1.94347e-05
-9.36183e-05
-1.94347e-05
-9.36183e-05
-9.43385e-06
9.04074e-05
-0.000231798
-5.8711e-05
-9.36184e-05
0.000121996
-9.36184e-05
0.000121996
9.04073e-05
-0.00022757
0.999957
0.999616
0.999945
1.00003
0.999945
1.00003
1.00026
0.999403
1.00061
0.998861
0.994836
0.999197
0.998861
1.00026
0.999197
0.999662
1.00026
0.999403
0.999662
1.00124
0.994836
0.999197
0.974402
0.993807
0.999197
0.999662
0.993807
1.00117
1.0003
1.00124
0.999929
0.997014
0.837165
0.955298
0.874766
0.883993
0.09906
0.389555
0.368375
0.727831
0.389555
0.837165
0.727831
0.874765
0.727831
0.874765
0.733928
0.795362
0.368375
0.727831
0.45641
0.733928
-0.000192464
0.0163231
0.00938076
0.0721516
0.0163231
0.09906
0.0721516
0.368375
0.805553
0.98316
0.740422
0.969989
0.740422
0.969989
0.837165
0.955298
0.0954385
0.225763
0.0237045
0.11755
0.225763
0.805553
0.11755
0.740422
0.11755
0.740422
0.389555
0.837165
0.0237045
0.11755
0.09906
0.389555
0.149515
0.123433
0.0198592
0.011686
0.123433
0.0954385
0.011686
0.0237045
0.011686
0.0237045
0.0163231
0.09906
0.0198592
0.011686
-0.000192465
0.0163231
0.15765
0.139452
0.0204632
0.0190549
0.139452
0.149515
0.0190549
0.0198592
0.0190549
0.0198592
-0.000590116
-0.000192465
0.0204632
0.0190549
-0.00371212
-0.000590115
0.00754047
0.0681329
0.00412536
0.0226211
0.0681329
0.15765
0.0226211
0.0204632
0.00306968
0.00754047
0.000534775
0.00412536
0.974402
0.993807
0.805553
0.98316
0.993807
1.00117
0.98316
0.998954
0.936139
0.910823
0.540388
0.583929
0.540388
0.583929
0.0954385
0.225763
0.910823
0.974402
0.583929
0.905988
0.583929
0.905988
0.225763
0.805553
0.782129
0.905887
0.591244
0.635575
0.905886
0.936139
0.635575
0.540388
0.635575
0.540388
0.123433
0.0954385
0.591244
0.635575
0.149515
0.123433
0.659194
0.69232
0.698314
0.557996
0.69232
0.782129
0.557996
0.591244
0.557996
0.591244
0.139452
0.149515
0.698314
0.557996
0.15765
0.139452
0.430458
0.621063
0.171434
0.588968
0.621063
0.659194
0.588968
0.698314
0.588968
0.698314
0.0681329
0.15765
0.171434
0.588968
0.00754047
0.0681329
0.0473417
0.430458
0.0243925
0.171434
0.0243925
0.171434
0.00306968
0.00754047
1.00027
0.992744
0.972898
0.995727
0.972898
0.995727
0.936139
0.910823
0.992744
0.994836
0.995727
0.996328
0.995727
0.996328
0.910823
0.974402
0.920175
0.979027
0.853628
0.949816
0.979027
1.00027
0.949816
0.972898
0.949816
0.972898
0.905887
0.936139
0.853628
0.949816
0.782129
0.905886
0.718563
0.834344
0.646796
0.720499
0.834344
0.920175
0.720499
0.853628
0.720499
0.853628
0.69232
0.782129
0.646796
0.720499
0.659194
0.69232
0.609192
0.681314
0.615489
0.634844
0.681314
0.718563
0.634844
0.646796
0.634844
0.646796
0.621063
0.659194
0.615489
0.634844
0.430458
0.621063
0.220572
0.609192
0.195253
0.615489
0.195253
0.615489
0.0473417
0.430458
0.983054
0.99957
0.995488
0.995298
0.995488
0.995298
1.00027
0.992744
0.99957
1.00061
0.995298
0.996033
0.995298
0.996033
0.992744
0.994836
0.367954
0.843328
0.864025
0.968468
0.843328
0.983054
0.968468
0.995488
0.968468
0.995488
0.979027
1.00027
0.864025
0.968468
0.920175
0.979027
0.0812967
0.132119
0.715604
0.659334
0.132119
0.367954
0.659334
0.864025
0.659334
0.864025
0.834344
0.920175
0.715604
0.659334
0.718563
0.834344
-0.0223203
0.033541
0.479486
0.700414
0.033541
0.0812967
0.700414
0.715604
0.700414
0.715604
0.681314
0.718563
0.479486
0.700414
0.609192
0.681314
0.104868
0.479486
0.220572
0.609192
1.00497
1.0003
1.00061
0.998861
1.0003
0.999945
0.998861
1.00026
0.888628
0.981267
0.941854
0.993907
0.941854
0.993907
0.983053
0.99957
0.981267
1.00497
0.993907
1.00387
0.993907
1.00387
0.99957
1.00061
0.0188731
0.269222
0.0525327
0.477616
0.269222
0.888628
0.477616
0.941854
0.477616
0.941854
0.843328
0.983054
0.0525327
0.477616
0.367954
0.843328
-0.00794147
0.000955294
0.0115172
0.0193711
0.000955295
0.0188731
0.0193711
0.0525327
0.0193711
0.0525327
0.132119
0.367954
0.0115172
0.0193711
0.0812967
0.132119
-0.0100118
-0.00794147
0.0240562
0.0115172
0.0240562
0.0115172
0.033541
0.0812967
1.00317
0.999584
1.00421
0.999952
1.00421
0.999952
1.00497
1.0003
0.999584
0.999957
0.999952
0.999968
0.999952
0.999968
1.0003
0.999945
0.862469
0.989482
0.866101
0.987913
0.989482
1.00317
0.987913
1.00421
0.987913
1.00421
0.981267
1.00497
0.866101
0.987913
0.888628
0.981267
0.0138222
0.219738
0.0107129
0.230226
0.219738
0.862469
0.230226
0.866101
0.230226
0.866101
0.269222
0.888628
0.0107129
0.230226
0.0188731
0.269222
-0.00181308
0.000113757
0.00334881
0.00220407
0.000113757
0.0138222
0.00220407
0.0107129
0.00220407
0.0107129
0.000955294
0.0188731
0.00334881
0.00220407
-0.00794147
0.000955294
1.00447
0.998229
1.00317
0.999584
0.998229
0.999371
0.999584
0.999957
0.902857
0.986663
0.871975
0.984402
0.871975
0.984402
0.862469
0.989482
0.986663
1.00447
0.984402
1.00412
0.984402
1.00412
0.989482
1.00317
0.0226095
0.312991
0.0115493
0.23654
0.312991
0.902857
0.23654
0.871975
0.23654
0.871975
0.219738
0.862469
0.0115493
0.23654
0.0138222
0.219738
0.00544081
0.0226095
0.00168251
0.0115493
0.00168251
0.0115493
0.000113757
0.0138222
0.000387796
0.00168251
-0.00181308
0.000113756
0.998653
1.00061
1.00447
0.998229
0.98522
1.00069
0.963635
0.995774
0.963635
0.995774
0.902857
0.986663
1.00069
0.998653
0.995774
1.00164
0.995774
1.00164
0.986663
1.00447
0.419705
0.910435
0.108702
0.623682
0.910435
0.98522
0.623682
0.963635
0.623682
0.963635
0.312991
0.902857
0.108702
0.623682
0.0226095
0.312991
0.0394833
0.419705
0.0172359
0.108702
0.0172359
0.108702
0.0054408
0.0226095
0.987196
1.00371
0.991265
1.00381
1.00371
0.998021
1.00381
0.99824
1.00381
0.99824
1.00069
0.998653
0.991265
1.00381
0.98522
1.00069
0.484348
0.942842
0.627332
0.97241
0.942842
0.987196
0.97241
0.991265
0.97241
0.991265
0.910435
0.98522
0.627332
0.97241
0.419705
0.910435
0.0458232
0.484348
0.0773038
0.627332
0.0773038
0.627332
0.0394833
0.419705
0.972222
0.996557
0.987196
1.00371
0.0515781
0.361154
0.221132
0.793781
0.793781
0.972222
0.942842
0.987196
0.221132
0.793781
0.484348
0.942842
0.0227803
0.221132
0.0458232
0.484348
-1.37931e-06
-1.36715e-06
3.82713e-06
4.01072e-06
-1.36715e-06
2.24513e-06
4.01072e-06
-6.60448e-06
2.24513e-06
-3.75114e-06
-6.60448e-06
1.11642e-05
-3.75114e-06
6.70398e-06
1.11642e-05
-1.98081e-05
6.70398e-06
-1.16949e-05
-1.98081e-05
3.55538e-05
-1.16949e-05
1.80657e-05
3.55538e-05
-5.41606e-05
3.82713e-06
4.01072e-06
8.65447e-06
8.70518e-06
4.01072e-06
-6.60448e-06
8.70518e-06
-1.43995e-05
-6.60448e-06
1.11642e-05
-1.43995e-05
2.60914e-05
1.11642e-05
-1.98081e-05
2.60914e-05
-4.92495e-05
-1.98081e-05
3.55538e-05
-4.92495e-05
9.78609e-05
3.55538e-05
-5.41606e-05
9.78609e-05
-0.000160214
-5.41606e-05
-2.07028e-05
-0.000160214
-7.84796e-05
8.65447e-06
8.70518e-06
2.2912e-05
2.2852e-05
8.70518e-06
-1.43995e-05
2.2852e-05
-3.63697e-05
-1.43995e-05
2.60914e-05
-3.63697e-05
6.14479e-05
2.60914e-05
-4.92495e-05
6.14479e-05
-0.000110292
-4.92495e-05
9.78609e-05
-0.000110292
0.000204834
9.78609e-05
-0.000160214
0.000204834
-0.000327881
-0.000160214
-7.84795e-05
-0.000327881
-0.000204552
2.2912e-05
2.2852e-05
-4.71866e-06
-4.49358e-06
2.2852e-05
-3.63697e-05
-4.49358e-06
7.30744e-06
-3.63697e-05
6.14479e-05
7.30744e-06
-1.24952e-05
6.14479e-05
-0.000110292
-1.24952e-05
2.28426e-05
-0.000110292
0.000204834
2.28426e-05
-4.2286e-05
0.000204834
-0.000327881
-4.2286e-05
9.72251e-05
-0.000327881
-0.000204552
9.7225e-05
2.54026e-06
-4.71866e-06
-4.49358e-06
1.98283e-06
1.85021e-06
-4.49358e-06
7.30743e-06
1.85021e-06
-2.99131e-06
7.30744e-06
-1.24952e-05
-2.99131e-06
5.07756e-06
-1.24952e-05
2.28426e-05
5.07756e-06
-9.24161e-06
2.28426e-05
-4.2286e-05
-9.24161e-06
1.71141e-05
-4.2286e-05
9.72251e-05
1.71141e-05
-2.31926e-05
9.72251e-05
2.5403e-06
-2.31926e-05
-2.69467e-05
1.98283e-06
1.85021e-06
-8.31193e-07
-8.29081e-07
1.85021e-06
-2.99131e-06
-8.29081e-07
1.22521e-06
-2.99131e-06
5.07756e-06
1.22521e-06
-2.02818e-06
5.07756e-06
-9.24161e-06
-2.02818e-06
3.60449e-06
-9.24161e-06
1.71141e-05
3.60449e-06
-7.06749e-06
1.71141e-05
-2.31926e-05
-7.06749e-06
9.15991e-06
-2.31926e-05
-2.69467e-05
9.15991e-06
1.60878e-05
-8.31193e-07
-8.29081e-07
3.18618e-08
3.66629e-09
-8.29081e-07
1.22521e-06
3.66635e-09
-4.02767e-09
1.22521e-06
-2.02818e-06
-4.02764e-09
-9.22069e-09
-2.02818e-06
3.60449e-06
-9.22043e-09
3.88147e-08
3.60449e-06
-7.0675e-06
3.88147e-08
-5.19022e-07
-7.06749e-06
9.15991e-06
-5.19023e-07
1.75642e-06
9.15991e-06
1.60878e-05
1.75642e-06
-1.62237e-05
3.18618e-08
3.66628e-09
2.95008e-07
3.08853e-07
3.66631e-09
-4.02767e-09
3.08853e-07
-4.4882e-07
-4.02756e-09
-9.2206e-09
-4.4882e-07
7.28742e-07
-9.22059e-09
3.88149e-08
7.28742e-07
-1.26749e-06
3.88146e-08
-5.19023e-07
-1.26749e-06
2.45297e-06
-5.19023e-07
1.75642e-06
2.45297e-06
-4.97768e-06
1.75642e-06
-1.62237e-05
-4.97767e-06
6.89021e-06
-1.62237e-05
-5.14664e-05
6.89021e-06
2.86199e-06
-5.14664e-05
-2.04109e-05
2.86199e-06
3.0572e-05
2.95008e-07
3.08853e-07
-3.165e-08
-3.09683e-08
3.08853e-07
-4.4882e-07
-3.09683e-08
5.61023e-08
-4.4882e-07
7.28742e-07
5.61023e-08
-9.81588e-08
7.28742e-07
-1.26749e-06
-9.81588e-08
1.78883e-07
-1.26749e-06
2.45297e-06
1.78883e-07
-3.37447e-07
2.45297e-06
-4.97768e-06
-3.37447e-07
8.95558e-07
-4.97768e-06
6.89021e-06
8.95558e-07
-3.54951e-06
-3.165e-08
-3.09683e-08
3.36215e-08
3.50639e-08
-3.09683e-08
5.61023e-08
3.50639e-08
-5.49022e-08
5.61023e-08
-9.81588e-08
-5.49022e-08
9.19402e-08
-9.81588e-08
1.78883e-07
9.19402e-08
-1.63846e-07
1.78883e-07
-3.37447e-07
-1.63846e-07
3.21945e-07
-3.37447e-07
8.95558e-07
3.21944e-07
-7.4325e-07
8.95558e-07
-3.54951e-06
-7.4325e-07
2.356e-06
3.36215e-08
3.50639e-08
-4.47528e-08
-4.45191e-08
3.50639e-08
-5.49022e-08
-4.45191e-08
7.15064e-08
-5.49023e-08
9.19402e-08
7.15064e-08
-1.20783e-07
9.19401e-08
-1.63846e-07
-1.20783e-07
2.18232e-07
-1.63846e-07
3.21944e-07
2.18232e-07
-4.13938e-07
3.21944e-07
-7.4325e-07
-4.13938e-07
8.49209e-07
-7.4325e-07
2.356e-06
8.49209e-07
-2.1009e-06
-4.47528e-08
-4.45191e-08
2.73118e-08
2.70766e-08
-4.45191e-08
7.15064e-08
2.70766e-08
-4.31332e-08
7.15064e-08
-1.20783e-07
-4.31332e-08
7.27177e-08
-1.20783e-07
2.18232e-07
7.27177e-08
-1.314e-07
2.18232e-07
-4.13937e-07
-1.314e-07
2.48603e-07
-4.13938e-07
8.49209e-07
2.48603e-07
-5.04593e-07
8.49209e-07
-2.1009e-06
-5.04593e-07
1.21509e-06
2.73118e-08
2.70766e-08
-1.05829e-08
-1.04761e-08
2.70766e-08
-4.31332e-08
-1.04761e-08
1.66945e-08
-4.31332e-08
7.27177e-08
1.66945e-08
-2.81874e-08
7.27177e-08
-1.314e-07
-2.81874e-08
5.08322e-08
-1.314e-07
2.48603e-07
5.08322e-08
-9.69543e-08
2.48603e-07
-5.04593e-07
-9.69543e-08
2.03467e-07
-5.04593e-07
1.21509e-06
2.03467e-07
-5.29577e-07
-1.05829e-08
-1.04761e-08
6.48338e-09
6.41192e-09
-1.04761e-08
1.66944e-08
6.41192e-09
-1.02231e-08
1.66945e-08
-2.81874e-08
-1.02231e-08
1.72573e-08
-2.81874e-08
5.08322e-08
1.72573e-08
-3.10969e-08
5.08322e-08
-9.69543e-08
-3.10969e-08
5.92886e-08
-9.69543e-08
2.03467e-07
5.92885e-08
-1.23846e-07
2.03467e-07
-5.29577e-07
-1.23846e-07
3.18831e-07
6.48338e-09
6.41192e-09
-4.09441e-09
-4.05272e-09
6.41192e-09
-1.02231e-08
-4.05272e-09
6.45072e-09
-1.02231e-08
1.72573e-08
6.45072e-09
-1.08998e-08
1.72573e-08
-3.10969e-08
-1.08998e-08
1.9527e-08
-3.10969e-08
5.92886e-08
1.9527e-08
-3.74705e-08
5.92886e-08
-1.23846e-07
-3.74705e-08
7.8154e-08
-1.23846e-07
3.18832e-07
7.8154e-08
-2.00538e-07
-4.09441e-09
-4.05272e-09
-4.20155e-09
-4.09952e-09
-4.05272e-09
6.45072e-09
-4.09952e-09
6.56398e-09
6.45072e-09
-1.08998e-08
6.56398e-09
-1.1103e-08
-1.08998e-08
1.9527e-08
-1.1103e-08
2.00487e-08
1.9527e-08
-3.74705e-08
2.00487e-08
-3.80638e-08
-3.74705e-08
7.8154e-08
-3.80638e-08
7.88227e-08
7.8154e-08
-2.00539e-07
7.88227e-08
-1.98211e-07
2.97116e-05
-4.8214e-05
-2.04109e-05
5.29567e-06
1.60878e-05
0.000150783
-1.62237e-05
-5.14664e-05
0.000150783
2.97116e-05
-5.14664e-05
-2.04109e-05
0.000126501
-0.000156519
0.000167335
-0.00015379
-0.000156519
-9.90582e-05
-0.00015379
5.934e-05
0.000167335
-0.00015379
2.97116e-05
-4.8214e-05
-2.69467e-05
-0.000256729
-1.08176e-05
-0.000181838
-1.08176e-05
-0.000181838
1.60878e-05
0.000150783
-0.000256729
0.000126501
-0.000181838
0.000167335
-0.000181838
0.000167335
0.000150783
2.97116e-05
-0.00145345
0.00306968
1.82e-05
0.000534775
1.82e-05
0.000534775
-9.90582e-05
-0.000222099
-0.000313941
0.000497539
-0.000220249
0.000143257
0.000497539
-0.00145345
0.000143257
1.82e-05
0.000143256
1.82e-05
-0.000156519
-9.90582e-05
-0.000220249
0.000143257
0.000126501
-0.000156519
2.54027e-06
0.000263088
6.23652e-06
0.00032806
6.23652e-06
0.00032806
-2.69467e-05
-0.000256729
0.000263088
-0.000313941
0.00032806
-0.000220249
0.00032806
-0.000220249