# vtk DataFile Version 2.0
Hex test
ASCII
DATASET UNSTRUCTURED_GRID
POINTS 7228 float
22 -6 0
22 -2.16667 0
24 -6 0
24 -2.16667 0
22 -2.16667 0
22 -2.77556e-17 0
24 -2.16667 0
24 -2.77556e-17 0
22 2.77556e-17 0
22 2 0
24 2.77556e-17 0
24 2 0
22 2 0
22 4 0
24 2 0
24 4 0
24 -6 0
24 -2.16667 0
26 -6 0
26 -2.16667 0
24 -2.16667 0
24 -2.77556e-17 0
26 -2.16667 0
26 -2.77556e-17 0
24 2.77556e-17 0
24 2 0
26 2.77556e-17 0
26 2 0
24 2 0
24 4 0
26 2 0
26 4 0
26 -6 0
26 -2.16667 0
28 -6 0
28 -2.16667 0
26 -2.16667 0
26 -2.77556e-17 0
28 -2.16667 0
28 -2.77556e-17 0
26 2.77556e-17 0
26 2 0
28 2.77556e-17 0
28 2 0
26 2 0
26 4 0
28 2 0
28 4 0
28 -6 0
28 -2.16667 0
30 -6 0
30 -2.16667 0
28 -2.16667 0
28 -2.77556e-17 0
30 -2.16667 0
30 -2.77556e-17 0
28 2.77556e-17 0
28 2 0
30 2.77556e-17 0
30 2 0
28 2 0
28 4 0
30 2 0
30 4 0
30 -6 0
30 -2.16667 0
32 -6 0
32 -2.16667 0
30 -2.16667 0
30 -2.77556e-17 0
32 -2.16667 0
32 -2.77556e-17 0
30 2.77556e-17 0
30 2 0
32 2.77556e-17 0
32 2 0
30 2 0
30 4 0
32 2 0
32 4 0
32 -6 0
32 -2.16667 0
34 -6 0
34 -2.16667 0
32 -2.16667 0
32 -2.77556e-17 0
34 -2.16667 0
34 -2.77556e-17 0
32 2.77556e-17 0
32 2 0
34 2.77556e-17 0
34 2 0
32 2 0
32 4 0
34 2 0
34 4 0
34 -6 0
34 -2.16667 0
36 -6 0
36 -2.16667 0
34 -2.16667 0
34 -2.77556e-17 0
36 -2.16667 0
36 -2.77556e-17 0
34 2.77556e-17 0
34 2 0
36 2.77556e-17 0
36 2 0
34 2 0
34 4 0
36 2 0
36 4 0
34 8 0
34 9 0
35 8 0
35 9 0
34 9 0
34 10 0
35 9 0
35 10 0
34 6 0
34 7 0
35 6 0
35 7 0
34 7 0
34 8 0
35 7 0
35 8 0
35 6 0
35 7 0
36 6 0
36 7 0
34 4 0
34 5 0
35 4 0
35 5 0
35 4 0
35 5 0
36 4 0
36 5 0
34 5 0
34 6 0
35 5 0
35 6 0
35 5 0
35 6 0
36 5 0
36 6 0
32 8 0
32 9 0
33 8 0
33 9 0
32 9 0
32 10 0
33 9 0
33 10 0
33 9 0
33 10 0
34 9 0
34 10 0
33 8 0
33 9 0
34 8 0
34 9 0
32 6 0
32 7 0
33 6 0
33 7 0
32 7 0
32 8 0
33 7 0
33 8 0
33 7 0
33 8 0
34 7 0
34 8 0
33 6 0
33 7 0
34 6 0
34 7 0
32 4 0
32 5 0
33 4 0
33 5 0
33 4 0
33 5 0
34 4 0
34 5 0
32 5 0
32 6 0
33 5 0
33 6 0
33 5 0
33 6 0
34 5 0
34 6 0
30 8 0
30 9 0
31 8 0
31 9 0
30 9 0
30 10 0
31 9 0
31 10 0
31 9 0
31 10 0
32 9 0
32 10 0
31 8 0
31 9 0
32 8 0
32 9 0
30 6 0
30 7 0
31 6 0
31 7 0
30 7 0
30 8 0
31 7 0
31 8 0
31 7 0
31 8 0
32 7 0
32 8 0
31 6 0
31 7 0
32 6 0
32 7 0
30 4 0
30 5 0
31 4 0
31 5 0
31 4 0
31 5 0
32 4 0
32 5 0
30 5 0
30 6 0
31 5 0
31 6 0
31 5 0
31 6 0
32 5 0
32 6 0
28 10 0
28 11 0
29 10 0
29 11 0
28 8 0
28 9 0
29 8 0
29 9 0
28 9 0
28 10 0
29 9 0
29 10 0
29 9 0
29 10 0
30 9 0
30 10 0
29 8 0
29 9 0
30 8 0
30 9 0
28 6 0
28 7 0
29 6 0
29 7 0
28 7 0
28 8 0
29 7 0
29 8 0
29 7 0
29 8 0
30 7 0
30 8 0
29 6 0
29 7 0
30 6 0
30 7 0
28 4 0
28 5 0
29 4 0
29 5 0
29 4 0
29 5 0
30 4 0
30 5 0
28 5 0
28 6 0
29 5 0
29 6 0
29 5 0
29 6 0
30 5 0
30 6 0
26 10 0
26 11 0
27 10 0
27 11 0
27 10 0
27 11 0
28 10 0
28 11 0
26 8 0
26 9 0
27 8 0
27 9 0
26 9 0
26 10 0
27 9 0
27 10 0
27 9 0
27 10 0
28 9 0
28 10 0
27 8 0
27 9 0
28 8 0
28 9 0
26 6 0
26 7 0
27 6 0
27 7 0
26 7 0
26 8 0
27 7 0
27 8 0
27 7 0
27 8 0
28 7 0
28 8 0
27 6 0
27 7 0
28 6 0
28 7 0
26 4 0
26 5 0
27 4 0
27 5 0
27 4 0
27 5 0
28 4 0
28 5 0
26 5 0
26 6 0
27 5 0
27 6 0
27 5 0
27 6 0
28 5 0
28 6 0
24 10 0
24 11 0
25 10 0
25 11 0
25 10 0
25 11 0
26 10 0
26 11 0
24 8 0
24 9 0
25 8 0
25 9 0
24 9 0
24 10 0
25 9 0
25 10 0
25 9 0
25 10 0
26 9 0
26 10 0
25 8 0
25 9 0
26 8 0
26 9 0
24 6 0
24 7 0
25 6 0
25 7 0
24 7 0
24 8 0
25 7 0
25 8 0
25 7 0
25 8 0
26 7 0
26 8 0
25 6 0
25 7 0
26 6 0
26 7 0
24 4 0
24 5 0
25 4 0
25 5 0
25 4 0
25 5 0
26 4 0
26 5 0
24 5 0
24 6 0
25 5 0
25 6 0
25 5 0
25 6 0
26 5 0
26 6 0
23 10 0
23 11 0
24 10 0
24 11 0
23 9 0
23 10 0
24 9 0
24 10 0
23 8 0
23 9 0
24 8 0
24 9 0
22 6 0
22 7 0
23 6 0
23 7 0
23 7 0
23 8 0
24 7 0
24 8 0
23 6 0
23 7 0
24 6 0
24 7 0
22 4 0
22 5 0
23 4 0
23 5 0
23 4 0
23 5 0
24 4 0
24 5 0
22 5 0
22 6 0
23 5 0
23 6 0
23 5 0
23 6 0
24 5 0
24 6 0
24 14 0
24 16 0
26 14 0
26 16 0
24 16 0
24 18 0
26 16 0
26 18 0
24 18 0
24 20 0
26 18 0
26 20 0
24 20 0
24 22 0
26 20 0
26 22 0
26 14 0
26 16 0
28 14 0
28 16 0
26 16 0
26 18 0
28 16 0
28 18 0
26 18 0
26 20 0
28 18 0
28 20 0
26 20 0
26 22 0
28 20 0
28 22 0
26 24 0
26 26 0
28 24 0
28 26 0
28 14 0
28 15 0
30 14 0
30 15 0
28 15 0
28 16 0
30 15 0
30 16 0
28 16 0
28 18 0
30 16 0
30 18 0
28 18 0
28 20 0
30 18 0
30 20 0
28 20 0
28 22 0
30 20 0
30 22 0
28 22 0
28 24 0
30 22 0
30 24 0
30 14 0
30 15 0
32 14 0
32 15 0
30 15 0
30 16 0
32 15 0
32 16 0
30 16 0
30 17 0
32 16 0
32 17 0
30 17 0
30 18 0
32 17 0
32 18 0
30 18 0
30 20 0
32 18 0
32 20 0
30 20 0
30 22 0
32 20 0
32 22 0
30 22 0
30 24 0
32 22 0
32 24 0
32 16 0
32 17 0
34 16 0
34 17 0
32 17 0
32 18 0
34 17 0
34 18 0
32 18 0
32 19 0
34 18 0
34 19 0
32 19 0
32 20 0
34 19 0
34 20 0
32 20 0
32 21 0
34 20 0
34 21 0
32 21 0
32 22 0
34 21 0
34 22 0
32 22 0
32 23 0
34 22 0
34 23 0
32 23 0
32 24 0
34 23 0
34 24 0
34 18 0
34 19 0
36 18 0
36 19 0
34 19 0
34 20 0
36 19 0
36 20 0
34 20 0
34 21 0
36 20 0
36 21 0
34 21 0
34 22 0
36 21 0
36 22 0
34 22 0
34 23 0
36 22 0
36 23 0
34 23 0
34 24 0
36 23 0
36 24 0
38 20 0
38 21 0
39 20 0
39 21 0
38 18 0
38 19 0
39 18 0
39 19 0
38 16 0
38 17 0
39 16 0
39 17 0
38 17 0
38 18 0
39 17 0
39 18 0
38 14 0
38 15 0
39 14 0
39 15 0
38 15 0
38 16 0
39 15 0
39 16 0
39 15 0
39 16 0
40 15 0
40 16 0
38 13 0
38 14 0
39 13 0
39 14 0
36 22 0
36 23 0
38 22 0
38 23 0
36 23 0
36 24 0
38 23 0
38 24 0
36 20 0
36 21 0
38 20 0
38 21 0
36 21 0
36 22 0
38 21 0
38 22 0
36 18 0
36 19 0
38 18 0
38 19 0
36 19 0
36 20 0
38 19 0
38 20 0
36 16 0
36 17 0
37 16 0
37 17 0
37 16 0
37 17 0
38 16 0
38 17 0
36 17 0
36 18 0
37 17 0
37 18 0
37 17 0
37 18 0
38 17 0
38 18 0
36 14 0
36 15 0
37 14 0
37 15 0
36 15 0
36 16 0
37 15 0
37 16 0
37 15 0
37 16 0
38 15 0
38 16 0
37 14 0
37 15 0
38 14 0
38 15 0
36 12 0
36 13 0
37 12 0
37 13 0
36 13 0
36 14 0
37 13 0
37 14 0
37 13 0
37 14 0
38 13 0
38 14 0
37 12 0
37 13 0
38 12 0
38 13 0
36 11 0
36 12 0
37 11 0
37 12 0
34 16 0
34 17 0
36 16 0
36 17 0
34 17 0
34 18 0
36 17 0
36 18 0
34 14 0
34 15 0
35 14 0
35 15 0
35 14 0
35 15 0
36 14 0
36 15 0
34 15 0
34 16 0
35 15 0
35 16 0
35 15 0
35 16 0
36 15 0
36 16 0
34 12 0
34 13 0
35 12 0
35 13 0
34 13 0
34 14 0
35 13 0
35 14 0
35 13 0
35 14 0
36 13 0
36 14 0
35 12 0
35 13 0
36 12 0
36 13 0
34 10 0
34 11 0
35 10 0
35 11 0
34 11 0
34 12 0
35 11 0
35 12 0
35 11 0
35 12 0
36 11 0
36 12 0
35 10 0
35 11 0
36 10 0
36 11 0
32 14 0
32 15 0
34 14 0
34 15 0
32 15 0
32 16 0
34 15 0
34 16 0
32 12 0
32 13 0
33 12 0
33 13 0
33 12 0
33 13 0
34 12 0
34 13 0
32 13 0
32 14 0
33 13 0
33 14 0
33 13 0
33 14 0
34 13 0
34 14 0
32 10 0
32 11 0
33 10 0
33 11 0
32 11 0
32 12 0
33 11 0
33 12 0
33 11 0
33 12 0
34 11 0
34 12 0
33 10 0
33 11 0
34 10 0
34 11 0
30 12 0
30 13 0
31 12 0
31 13 0
31 12 0
31 13 0
32 12 0
32 13 0
30 13 0
30 14 0
31 13 0
31 14 0
31 13 0
31 14 0
32 13 0
32 14 0
30 10 0
30 11 0
31 10 0
31 11 0
30 11 0
30 12 0
31 11 0
31 12 0
31 11 0
31 12 0
32 11 0
32 12 0
31 10 0
31 11 0
32 10 0
32 11 0
28 12 0
28 13 0
29 12 0
29 13 0
29 12 0
29 13 0
30 12 0
30 13 0
28 13 0
28 14 0
29 13 0
29 14 0
29 13 0
29 14 0
30 13 0
30 14 0
28 11 0
28 12 0
29 11 0
29 12 0
29 11 0
29 12 0
30 11 0
30 12 0
29 10 0
29 11 0
30 10 0
30 11 0
26 12 0
26 13 0
27 12 0
27 13 0
27 12 0
27 13 0
28 12 0
28 13 0
26 13 0
26 14 0
27 13 0
27 14 0
27 13 0
27 14 0
28 13 0
28 14 0
26 11 0
26 12 0
27 11 0
27 12 0
27 11 0
27 12 0
28 11 0
28 12 0
24 12 0
24 13 0
25 12 0
25 13 0
25 12 0
25 13 0
26 12 0
26 13 0
24 13 0
24 14 0
25 13 0
25 14 0
25 13 0
25 14 0
26 13 0
26 14 0
24 11 0
24 12 0
25 11 0
25 12 0
25 11 0
25 12 0
26 11 0
26 12 0
22 11 0
22 12 0
23 11 0
23 12 0
23 11 0
23 12 0
24 11 0
24 12 0
36 -6 0
36 -2.16667 0
38 -6 0
38 -2.16667 0
36 -2.16667 0
36 -2.77556e-17 0
38 -2.16667 0
38 -2.77556e-17 0
36 2.77556e-17 0
36 2 0
38 2.77556e-17 0
38 2 0
36 2 0
36 4 0
38 2 0
38 4 0
38 -6 0
38 -2.16667 0
40 -6 0
40 -2.16667 0
38 -2.16667 0
38 -2.77556e-17 0
40 -2.16667 0
40 -2.77556e-17 0
38 2.77556e-17 0
38 2 0
40 2.77556e-17 0
40 2 0
38 2 0
38 4 0
40 2 0
40 4 0
40 -6 0
40 -2.16667 0
42 -6 0
42 -2.16667 0
40 -2.16667 0
40 -2.77556e-17 0
42 -2.16667 0
42 -2.77556e-17 0
40 2.77556e-17 0
40 2 0
42 2.77556e-17 0
42 2 0
40 2 0
40 4 0
42 2 0
42 4 0
40 4 0
40 5 0
42 4 0
42 5 0
40 5 0
40 6 0
42 5 0
42 6 0
42 -6 0
42 -2.16667 0
44 -6 0
44 -2.16667 0
42 -2.16667 0
42 -2.77556e-17 0
44 -2.16667 0
44 -2.77556e-17 0
42 2.77556e-17 0
42 2 0
44 2.77556e-17 0
44 2 0
42 2 0
42 4 0
44 2 0
44 4 0
42 4 0
42 5 0
44 4 0
44 5 0
42 5 0
42 6 0
44 5 0
44 6 0
42 6 0
42 7 0
44 6 0
44 7 0
42 7 0
42 8 0
44 7 0
44 8 0
44 -6 0
44 -2.16667 0
46 -6 0
46 -2.16667 0
44 -2.16667 0
44 -2.77556e-17 0
46 -2.16667 0
46 -2.77556e-17 0
44 2.77556e-17 0
44 2 0
46 2.77556e-17 0
46 2 0
44 2 0
44 4 0
46 2 0
46 4 0
44 4 0
44 6 0
46 4 0
46 6 0
44 6 0
44 7 0
46 6 0
46 7 0
44 7 0
44 8 0
46 7 0
46 8 0
44 8 0
44 9 0
46 8 0
46 9 0
44 9 0
44 10 0
46 9 0
46 10 0
46 -6 0
46 -2.16667 0
48 -6 0
48 -2.16667 0
46 -2.16667 0
46 -2.77556e-17 0
48 -2.16667 0
48 -2.77556e-17 0
46 2.77556e-17 0
46 2 0
48 2.77556e-17 0
48 2 0
46 2 0
46 4 0
48 2 0
48 4 0
46 4 0
46 6 0
48 4 0
48 6 0
46 6 0
46 8 0
48 6 0
48 8 0
46 8 0
46 9 0
48 8 0
48 9 0
46 9 0
46 10 0
48 9 0
48 10 0
46 10 0
46 11 0
48 10 0
48 11 0
46 11 0
46 12 0
48 11 0
48 12 0
48 -6 0
48 -2.16667 0
50.1667 -6 0
50.1667 -2.16667 0
48 -2.16667 0
48 -2.77556e-17 0
50.1667 -2.16667 0
50.1667 0 0
48 2.77556e-17 0
48 2 0
50.1667 0 0
50.1667 2 0
48 2 0
48 4 0
50.1667 2 0
50.1667 4 0
48 4 0
48 6 0
50.1667 4 0
50.1667 6 0
48 6 0
48 8 0
50.1667 6 0
50.1667 8 0
48 8 0
48 10 0
50.1667 8 0
50.1667 10 0
50.1667 -6 0
50.1667 -2.16667 0
54 -6 0
54 -2.16667 0
50.1667 -2.16667 0
50.1667 6.93889e-17 0
54 -2.16667 0
54 0 0
50.1667 -1.38778e-17 0
50.1667 2 0
54 0 0
54 2 0
50.1667 2 0
50.1667 4 0
54 2 0
54 4 0
50.1667 4 0
50.1667 6 0
54 4 0
54 6 0
50.1667 6 0
50.1667 8 0
54 6 0
54 8 0
50.1667 8 0
50.1667 10 0
54 8 0
54 10 0
44 10 0
44 11 0
46 10 0
46 11 0
44 11 0
44 12 0
46 11 0
46 12 0
42 10 0
42 11 0
43 10 0
43 11 0
43 10 0
43 11 0
44 10 0
44 11 0
42 11 0
42 12 0
43 11 0
43 12 0
43 11 0
43 12 0
44 11 0
44 12 0
42 8 0
42 9 0
44 8 0
44 9 0
42 9 0
42 10 0
44 9 0
44 10 0
40 12 0
40 13 0
41 12 0
41 13 0
[...]
POINT_DATA 7228
SCALARS phi float 1
LOOKUP_TABLE default
9.1822e-05
3.98191e-05
-2.26199e-05
-0.000162541
3.98192e-05
-0.000191572
-0.000162541
-0.000131739
-0.000191572
0.000390125
-0.000131739
0.000545108
0.000390125
-0.000168902
0.000545108
-0.0006271
-2.26199e-05
-0.000162541
5.43498e-05
1.27242e-05
-0.000162541
-0.000131739
1.27242e-05
-0.000126401
-0.000131739
0.000545108
-0.000126401
0.000278458
0.000545108
-0.0006271
0.000278458
-0.000176119
5.43498e-05
1.27242e-05
5.46664e-05
-0.000360177
1.27242e-05
-0.000126401
-0.000360177
-0.000560216
-0.000126401
0.000278458
-0.000560216
0.00185363
0.000278458
-0.000176119
0.00185363
-0.0017661
5.46664e-05
-0.000360177
-3.54362e-05
-7.11592e-05
-0.000360177
-0.000560216
-7.11592e-05
1.17947e-05
-0.000560216
0.00185363
1.17948e-05
9.17876e-05
0.00185363
-0.0017661
9.17875e-05
-0.00025622
-3.54362e-05
-7.11592e-05
6.84924e-05
0.00010539
-7.11592e-05
1.17947e-05
0.00010539
-6.00209e-05
1.17947e-05
9.17874e-05
-6.00209e-05
-1.80074e-05
9.17874e-05
-0.00025622
-1.80074e-05
0.000238244
6.84924e-05
0.00010539
1.42161e-06
-6.44622e-06
0.00010539
-6.00209e-05
-6.44622e-06
-1.12376e-05
-6.00209e-05
-1.80074e-05
-1.12376e-05
3.79149e-05
-1.80073e-05
0.000238244
3.79149e-05
-4.40418e-05
1.42161e-06
-6.44622e-06
3.15044e-05
3.76118e-05
-6.44622e-06
-1.12376e-05
3.76118e-05
-3.89021e-05
-1.12376e-05
3.79149e-05
-3.89021e-05
3.27581e-05
3.79149e-05
-4.40419e-05
3.27581e-05
5.86788e-05
-0.00273282
0.0112323
-0.00331121
0.00557191
0.0112323
-0.00560972
0.00557191
-0.0128108
-0.000786642
0.00288592
-0.000538588
0.00199431
0.00288592
-0.00273282
0.00199431
-0.00331121
-0.000538588
0.00199431
-0.000184713
0.000349375
-4.40419e-05
-0.000429752
-3.16183e-06
-0.000169497
-3.16183e-06
-0.000169497
5.86788e-05
0.000452234
-0.000429752
-0.000786642
-0.000169497
-0.000538588
-0.000169497
-0.000538588
0.000452234
-0.000184713
0.0361663
0.276232
0.0103052
0.0520187
0.276232
0.671278
0.0520187
0.271786
0.0520187
0.271786
0.0112323
-0.00560972
0.0103052
0.0520187
-0.00273282
0.0112323
-0.00169152
0.00575529
0.000578005
-0.00178868
0.00575529
0.0361663
-0.00178868
0.0103052
-0.00178868
0.0103052
0.00288592
-0.00273282
0.000578005
-0.00178868
-0.000786642
0.00288592
0.000238244
-8.38323e-05
7.84791e-05
0.00122635
7.84791e-05
0.00122635
-4.40418e-05
-0.000429752
-8.38322e-05
-0.00169152
0.00122635
0.000578005
0.00122635
0.000578005
-0.000429752
-0.000786642
0.178437
0.655168
0.100281
0.441893
0.655169
0.958952
0.441893
0.853974
0.441893
0.853974
0.276232
0.671278
0.100281
0.441893
0.0361663
0.276232
0.000254096
0.00757565
-0.000257727
0.00617049
0.00757565
0.178437
0.00617049
0.100281
0.00617049
0.100281
0.00575529
0.0361663
-0.000257727
0.00617049
-0.00169152
0.00575529
-0.00025622
0.000300214
0.000222883
-0.000508977
0.000222883
-0.000508977
0.000238244
-8.38322e-05
0.000300214
0.000254096
-0.000508977
-0.000257727
-0.000508977
-0.000257727
-8.38323e-05
-0.00169152
0.982779
0.995773
0.984798
1.0055
0.0695781
0.701612
0.16656
0.845168
0.701612
0.982779
0.845168
0.984798
0.845168
0.984798
0.655169
0.958952
0.16656
0.845168
0.178437
0.655169
-0.008786
0.0203294
-0.0035872
0.00947183
0.0203295
0.0695781
0.00947183
0.16656
0.00947183
0.16656
0.00757565
0.178437
-0.0035872
0.00947183
0.000254096
0.00757565
-0.0017661
0.00202715
-0.00124797
0.00205383
-0.00124797
0.00205383
-0.00025622
0.000300214
0.00202715
-0.008786
0.00205383
-0.0035872
0.00205383
-0.0035872
0.000300214
0.000254096
0.898096
0.987356
0.916945
0.983207
0.916945
0.983208
0.982779
0.995773
0.0103706
0.281018
0.00391939
0.29981
0.281018
0.898096
0.29981
0.916945
0.29981
0.916945
0.701612
0.982779
0.00391939
0.29981
0.0695781
0.701612
-0.00178963
0.00386961
-0.00315162
0.00452324
0.00386961
0.0103706
0.00452324
0.00391939
0.00452324
0.00391939
0.0203295
0.0695781
-0.00315162
0.00452324
-0.008786
0.0203294
-0.000176119
0.000423014
-0.00103744
0.00341295
-0.00103744
0.00341295
-0.0017661
0.00202715
0.000423015
-0.00178963
0.00341295
-0.00315162
0.00341295
-0.00315162
0.00202715
-0.008786
0.896192
0.988029
0.900836
0.985793
0.900836
0.985793
0.898096
0.987356
0.0112297
0.270062
0.00406783
0.268904
0.270062
0.896192
0.268904
0.900836
0.268904
0.900836
0.281018
0.898096
0.00406783
0.268904
0.0103706
0.281018
-0.00139766
0.00285656
-0.00140597
0.00310694
0.00285656
0.0112297
0.00310694
0.00406783
0.00310694
0.00406783
0.00386961
0.0103706
-0.00140597
0.00310694
-0.00178963
0.00386961
-0.0006271
0.00080315
-0.000296599
-0.000337333
-0.000296599
-0.000337333
-0.000176119
0.000423015
0.00080315
-0.00139766
-0.000337333
-0.00140597
-0.000337333
-0.00140597
0.000423014
-0.00178963
0.896279
0.986516
0.896192
0.988029
0.257464
0.896279
0.270062
0.896192
-0.00028604
0.257465
0.0112297
0.270062
-0.0011995
0.00198412
-0.00208326
0.00341541
0.00341541
-0.000286039
0.00285656
0.0112297
-0.00208326
0.00341541
-0.00139766
0.00285656
-0.000168902
0.00185168
-0.000327308
0.00134045
-0.000327308
0.00134045
-0.0006271
0.00080315
0.00185168
-0.0011995
0.00134045
-0.00208326
0.00134045
-0.00208326
0.00080315
-0.00139766
0.999814
0.999761
0.999407
0.999597
0.999761
0.999881
0.999597
1.00099
0.999881
0.99972
1.00099
1.00025
0.99972
0.999844
1.00025
1.00052
0.999407
0.999597
1.00046
1.00032
0.999597
1.00099
1.00032
0.998693
1.00099
1.00025
0.998693
0.999252
1.00025
1.00052
0.999252
0.99889
1.00029
1.00046
0.99967
0.998291
1.00046
1.00243
1.00042
1.00121
1.00243
1.00032
1.00121
1.00196
1.00032
0.998693
1.00196
1.00292
0.998693
0.999252
1.00292
1.00122
0.999252
0.99889
1.00122
1.00191
0.99889
0.99967
1.00191
1.00114
1.00042
1.00121
0.997498
1.00172
1.00121
1.00196
1.00172
1.00038
1.00196
1.00269
1.00038
1.00325
1.00269
1.00292
1.00325
0.995093
1.00292
1.00122
0.995093
0.994324
1.00122
1.00191
0.994324
0.997279
1.00191
1.00114
0.997279
0.997497
1.00038
1.00325
0.988422
1.01436
1.00325
0.995093
1.01436
1.00556
0.995093
0.992037
1.00556
0.994833
0.992037
0.994324
0.994833
0.995536
0.994324
0.996315
0.995536
1.00428
0.996315
0.997279
1.00428
1.0073
0.997279
0.997634
1.0073
1.00602
0.997634
0.997497
1.00602
1.00478
1.00556
0.994833
0.989433
0.985728
0.994833
0.995536
0.985728
0.987199
0.995537
1.00428
0.987199
0.993229
1.00428
1.0073
0.993229
0.99173
1.0073
1.00602
0.99173
0.992723
1.00602
1.00478
0.992723
0.99316
0.764529
0.75443
0.183612
0.186105
0.727284
0.725162
0.118037
0.131076
0.535095
0.681195
0.0526686
0.0642665
0.681195
0.727284
0.0642665
0.118037
0.0843016
0.27587
0.00172733
0.0363498
0.27587
0.535095
0.0363498
0.0526686
0.0363498
0.0526686
0.00597367
0.0199295
0.0211775
0.0843016
0.000591268
0.00172733
0.99173
0.992723
0.760469
0.760313
0.992723
0.99316
0.760313
0.75954
0.987199
0.993229
0.764529
0.75443
0.993229
0.99173
0.75443
0.760469
0.989433
0.985728
0.727284
0.725162
0.985728
0.987199
0.725162
0.764529
0.981174
0.981365
0.900986
0.990601
0.900986
0.990601
0.535095
0.681195
0.981365
0.989433
0.990601
1.00502
0.990601
1.00502
0.681195
0.727284
0.81774
0.900019
0.357456
0.598385
0.900019
0.981174
0.598385
0.900986
0.598385
0.900986
0.27587
0.535095
0.357456
0.598385
0.0843016
0.27587
0.292325
0.6368
0.053711
0.215242
0.6368
0.81774
0.215242
0.357456
0.215242
0.357456
0.0211775
0.0843017
0.053711
0.215242
0.0078844
0.0211775
0.0313467
0.292325
0.0132791
0.053711
0.988422
1.01436
0.981174
0.981365
1.01436
1.00556
0.981365
0.989433
0.996674
0.994356
0.991002
1.00004
0.991002
1.00004
0.81774
0.900019
0.994356
0.988422
1.00004
0.987892
1.00004
0.987892
0.900019
0.981174
0.795793
0.983256
0.620689
0.922726
0.983256
0.996674
0.922726
0.991002
0.922726
0.991002
0.6368
0.81774
0.620689
0.922726
0.292325
0.6368
-0.00560972
0.215567
-0.0128108
0.141006
0.215567
0.795793
0.141006
0.620689
0.141006
0.620689
0.0313467
0.292325
-0.0128108
0.141006
-0.00491051
0.0313467
0.997498
1.00172
0.996674
0.994356
1.00172
1.00038
0.994356
0.988422
0.979411
0.995728
0.863607
0.97821
0.863607
0.97821
0.795793
0.983256
0.995728
0.997498
0.97821
0.993441
0.97821
0.993441
0.983256
0.996674
0.671278
0.902709
0.271786
0.556476
0.902709
0.979411
0.556476
0.863607
0.556476
0.863607
0.215567
0.795793
0.271786
0.556476
-0.00560973
0.215567
1.00577
1.00403
0.986189
0.997547
0.986189
0.997547
0.979411
0.995728
1.00403
1.00042
0.997547
0.999908
0.997547
0.999908
0.995728
0.997498
0.958952
0.996684
0.853974
0.995177
0.996684
1.00577
0.995177
0.986189
0.995177
0.986189
0.902709
0.979411
0.853974
0.995177
0.671278
0.902709
1.00581
0.996922
0.997056
0.99719
0.997056
0.99719
1.00577
1.00403
0.996922
1.00046
0.99719
1.00059
0.99719
1.00059
1.00403
1.00042
0.995773
1.00581
1.0055
0.997056
1.0055
0.997056
0.996684
1.00577
0.984798
1.0055
0.958952
0.996684
1.00571
0.997469
1.00614
0.997369
1.00614
0.997369
1.00581
0.996922
0.997469
0.999407
0.997369
0.999873
0.997369
0.999873
0.996922
1.00046
0.987356
1.00571
0.983207
1.00614
0.983208
1.00614
0.995773
1.00581
1.00477
0.998518
1.00536
0.998856
1.00536
0.998856
1.00571
0.997469
0.998518
0.999814
0.998856
0.999557
0.998856
0.999557
0.997469
0.999407
0.988029
1.00477
0.985794
1.00536
0.985793
1.00536
0.987356
1.00571
0.989117
1.00466
0.986516
1.00568
0.986516
1.00568
0.988029
1.00477
3.15044e-05
3.76118e-05
-1.06535e-05
-2.14344e-05
3.76118e-05
-3.89021e-05
-2.14344e-05
2.43432e-06
-3.89021e-05
3.27581e-05
2.43432e-06
2.31437e-05
3.27581e-05
5.86788e-05
2.31437e-05
-9.45192e-05
-1.06535e-05
-2.14344e-05
1.64997e-06
-3.4935e-06
-2.14344e-05
2.43432e-06
-3.4935e-06
-8.8295e-06
2.43432e-06
2.31437e-05
-8.8295e-06
2.36558e-05
2.31437e-05
-9.45192e-05
2.36558e-05
-3.82002e-05
1.64997e-06
-3.4935e-06
5.96428e-06
5.93729e-06
-3.49351e-06
-8.8295e-06
5.93729e-06
-8.95865e-06
-8.8295e-06
2.36558e-05
-8.95865e-06
1.36083e-05
2.36558e-05
-3.82002e-05
1.36083e-05
-2.80449e-05
-3.82002e-05
2.14639e-05
-2.80449e-05
1.66751e-05
2.14639e-05
-0.000100767
1.66751e-05
-6.05125e-05
5.96428e-06
5.93729e-06
1.02382e-07
-5.41068e-07
5.93729e-06
-8.95865e-06
-5.41068e-07
-1.05689e-06
-8.95865e-06
1.36083e-05
-1.05689e-06
3.09188e-06
1.36083e-05
-2.80449e-05
3.09188e-06
-5.98306e-06
-2.80449e-05
1.66751e-05
-5.98306e-06
5.79276e-06
1.66751e-05
-6.05125e-05
5.79276e-06
1.35953e-05
-6.05125e-05
-1.48447e-05
1.35953e-05
1.0798e-05
-1.48447e-05
3.91013e-06
1.0798e-05
2.68849e-05
1.02382e-07
-5.41068e-07
-4.80495e-07
4.86147e-08
-5.41068e-07
-1.05689e-06
4.86146e-08
1.4696e-06
-1.05689e-06
3.09188e-06
1.4696e-06
-3.50381e-06
3.09188e-06
-5.98306e-06
-3.50381e-06
5.89453e-06
-5.98305e-06
1.35953e-05
5.89453e-06
-1.38487e-05
1.35953e-05
1.0798e-05
-1.38487e-05
5.44777e-06
1.0798e-05
2.68849e-05
5.44777e-06
3.3678e-05
2.68849e-05
5.01169e-06
3.3678e-05
5.03035e-05
5.01169e-06
1.30767e-05
5.03035e-05
6.03352e-05
-4.80495e-07
4.86146e-08
5.57283e-07
4.87646e-07
4.86147e-08
1.4696e-06
4.87646e-07
-9.77936e-07
1.4696e-06
-3.50381e-06
-9.77936e-07
1.82717e-06
-3.50381e-06
5.89453e-06
1.82717e-06
-2.92352e-06
5.89453e-06
-1.38487e-05
-2.92352e-06
6.29977e-06
-1.38487e-05
3.3678e-05
6.29977e-06
1.79208e-06
3.3678e-05
5.03035e-05
1.79208e-06
1.43263e-05
5.03035e-05
6.03352e-05
1.43263e-05
2.79112e-05
6.03352e-05
8.42969e-05
2.79112e-05
4.0955e-05
8.42969e-05
8.62013e-05
4.0955e-05
4.83004e-05
5.57283e-07
4.87646e-07
-5.62163e-07
-6.95616e-07
4.87646e-07
-9.77936e-07
-6.95616e-07
6.6784e-07
-9.77936e-07
1.82717e-06
6.6784e-07
-8.00222e-07
1.82717e-06
-2.92352e-06
-8.00223e-07
8.89175e-07
-2.92352e-06
6.29977e-06
8.89174e-07
-6.50849e-06
6.29977e-06
1.79208e-06
-6.50849e-06
5.96789e-06
1.79208e-06
2.79112e-05
5.96789e-06
-1.75473e-05
-5.62163e-07
-6.95616e-07
-4.02323e-07
-4.27036e-07
-6.95616e-07
6.6784e-07
-4.27036e-07
5.70179e-07
6.6784e-07
-8.00223e-07
5.70179e-07
-8.75604e-07
-8.00223e-07
8.89175e-07
-8.75605e-07
1.17541e-06
8.89174e-07
-6.50849e-06
1.17541e-06
-5.4662e-06
-6.50849e-06
5.96789e-06
-5.4662e-06
4.36905e-06
5.96789e-06
-1.75473e-05
4.36905e-06
-1.19145e-05
1.30767e-05
5.95115e-05
6.03352e-05
8.42969e-05
5.95115e-05
1.56478e-05
8.42969e-05
8.62013e-05
-4.11746e-05
0.000162646
-8.32662e-05
-0.000198728
-8.32662e-05
-0.000198728
1.30767e-05
5.95115e-05
0.000162646
0.000189466
-0.000198728
0.000115448
-0.000198728
0.000115448
5.95115e-05
1.56478e-05
3.91013e-06
2.8803e-05
2.68849e-05
5.01169e-06
2.8803e-05
-4.11746e-05
5.01169e-06
1.30767e-05
0.000935012
-0.000719375
-0.000401944
0.000260687
-0.000719375
0.0026691
0.000260687
-0.00110497
-0.000401944
0.000260687
0.000189466
-0.000378094
-7.60284e-05
-0.000777063
0.000118034
0.0003072
-0.000777063
0.000935013
0.0003072
-0.000401944
0.0003072
-0.000401944
0.000162646
0.000189466
0.000118034
0.0003072
-4.11746e-05
0.000162646
1.88352e-05
9.67232e-05
-8.83484e-06
-6.00685e-05
-8.83484e-06
-6.00685e-05
3.91013e-06
2.8803e-05
9.67233e-05
-7.60284e-05
-6.00685e-05
0.000118034
-6.00685e-05
0.000118034
2.8803e-05
-4.11746e-05
-0.000100767
0.000248011
-6.05125e-05
-1.48447e-05
0.000248011
1.88352e-05
-1.48447e-05
3.91013e-06
0.0078844
0.0211775
-0.00171221
0.000591268
0.000591268
0.00172733
-0.000719375
0.0026691
-0.00171221
0.000591268
0.000935013
-0.000719375
-0.000276569
-0.00237523
0.000128812
0.00157196
-0.00237523
0.00788439
0.00157196
-0.00171221
0.00157196
-0.00171221
-0.000777063
0.000935013
0.000128812
0.00157196
-7.60284e-05
-0.000777063
-2.59605e-06
-0.000122311
0.000126346
-2.55839e-05
-0.000122311
-0.000276569
-2.55839e-05
0.000128812
-2.55839e-05
0.000128812
9.67232e-05
-7.60284e-05
0.000126346
-2.55839e-05
1.88352e-05
9.67232e-05
-2.29102e-05
8.35283e-05
-4.25171e-05
5.41416e-05
-4.25171e-05
5.41416e-05
-0.000100767
0.000248011
8.35283e-05
-2.59603e-06
5.41416e-05
0.000126346
5.41416e-05
0.000126346
0.000248011
1.88352e-05
-9.45192e-05
-0.000137117
-3.82002e-05
2.14638e-05
-0.000137117
-2.29101e-05
2.14638e-05
-0.000100767
-0.00491051
0.0313467
-0.00139887
0.0132791
0.0132791
0.053711
-0.00237524
0.00788439
-0.00139887
0.0132791
-0.000276569
-0.00237524
-0.000168682
0.000934077
-0.000670256
0.00110358
0.000934077
-0.00491051
0.00110358
-0.00139887
0.00110358
-0.00139887
-0.000122311
-0.000276569
-0.000670256
0.00110358
-2.59605e-06
-0.000122311
-0.000184713
0.000349375
-0.00010321
0.000128726
0.000349375
-0.000168682
0.000128726
-0.000670256
0.000128726
-0.000670256
8.35283e-05
-2.59607e-06
-0.00010321
0.000128726
-2.29101e-05
8.35283e-05
5.86788e-05
0.000452234
-5.78637e-06
0.000209738
-5.78637e-06
0.000209738
-9.45192e-05
-0.000137117
0.000452234
-0.000184713
0.000209738
-0.00010321
0.000209738
-0.00010321
-0.000137117
-2.29101e-05
0.00557191
-0.0128108
0.000934077
-0.00491051
-0.00331121
0.00557191
-0.000168682
0.000934077
0.00199431
-0.00331121
0.000349375
-0.000168682
9.14977e-05
8.5178e-05
0.000182145
0.000138809
8.5178e-05
8.81146e-05
0.000138809
0.000114541
2.79112e-05
4.0955e-05
-1.75473e-05
-6.37862e-06
4.0955e-05
4.83003e-05
-6.37862e-06
-2.70591e-08
4.83003e-05
-7.4769e-05
-2.70577e-08
-9.82786e-06
-7.4769e-05
-2.89185e-05
-9.82786e-06
2.50596e-05
-2.89185e-05
0.000171688
2.50596e-05
6.78409e-05
0.000171688
-0.00016474
6.78409e-05
5.64096e-05
-0.00016474
-0.000567882
5.64096e-05
1.45302e-05
-0.000567882
-0.000562016
1.45302e-05
5.54136e-05
-0.000562016
-0.000579844
5.54136e-05
-5.10278e-05
-0.000579844
-0.000159705
-5.10278e-05
-5.50995e-05
-0.000159705
0.000154192
-5.50995e-05
6.19811e-06
0.000154192
0.000182145
6.19811e-06
4.47009e-06
0.000182145
0.000138809
4.47009e-06
-1.53287e-06
0.000138809
0.000114541
-1.53287e-06
-1.54489e-06
-1.75473e-05
-2.7058e-08
-1.19145e-05
-3.52332e-06
-2.70574e-08
-9.82786e-06
-3.52332e-06
-6.83928e-06
-9.82786e-06
2.50596e-05
-6.83928e-06
3.55618e-06
2.50596e-05
6.78408e-05
3.55618e-06
4.31583e-05
6.78408e-05
5.64096e-05
4.31583e-05
7.21211e-05
5.64096e-05
1.45302e-05
7.21211e-05
5.3667e-05
1.45302e-05
5.54136e-05
5.3667e-05
1.86318e-05
5.54136e-05
-5.10278e-05
1.86318e-05
3.50303e-06
-5.10278e-05
-5.50995e-05
3.50303e-06
-2.39832e-07
-5.50995e-05
6.19811e-06
-2.39832e-07
-7.35548e-06
6.19811e-06
4.47009e-06
-7.35548e-06
-1.25467e-05
4.47009e-06
-1.54489e-06
-1.25467e-05
-5.4954e-06
-3.80068e-05
3.45694e-05
-0.000159705
0.000154192
3.45694e-05
9.14977e-05
0.000154192
0.000182145
0.000238005
-3.28199e-05
-0.000562016
-0.000579844
-3.282e-05
-3.80068e-05
-0.000579844
-0.000159705
-6.85138e-05
-1.00023e-05
-0.00016474
-0.000567882
-1.00023e-05
0.000238004
-0.000567882
-0.000562016
-0.000168777
-0.000202856
-2.89185e-05
0.000171688
-0.000202856
-6.85138e-05
0.000171688
-0.00016474
8.62013e-05
-7.77823e-05
4.83004e-05
-7.4769e-05
-7.77823e-05
-0.000168777
-7.4769e-05
-2.89184e-05
-0.000184667
-0.000171246
9.14977e-05
8.5178e-05
-0.000221201
-0.000280994
-0.000331274
-0.000447022
-0.000331274
-0.000447022
-3.80068e-05
3.45694e-05
-0.000280994
-0.000184667
-0.000447022
-0.000333019
-0.000447022
-0.000333019
3.45694e-05
9.14977e-05
0.00436733
0.00209959
0.0052926
0.00255038
0.00209959
-0.000221201
0.00255038
-0.000331274
0.00255038
-0.000331274
-3.282e-05
-3.80068e-05
0.0052926
0.00255038
0.000238005
-3.282e-05
0.00164744
0.00429339
8.67356e-05
0.00309435
0.00429339
0.00436733
0.00309435
0.0052926
0.00309435
0.0052926
-1.00023e-05
0.000238005
8.67356e-05
0.00309435
-6.85138e-05
-1.00023e-05
0.00010114
-0.000522079
0.000186951
-0.00165524
-0.000522079
0.00164744
-0.00165524
8.67355e-05
-0.00165524
8.67356e-05
-0.000202856
-6.85138e-05
0.000186951
-0.00165524
-0.000168777
-0.000202856
1.56478e-05
0.000254664
5.45727e-05
0.000383325
5.45727e-05
0.000383325
8.62013e-05
-7.77823e-05
0.000254664
0.00010114
0.000383325
0.000186951
0.000383325
0.000186951
-7.77823e-05
-0.000168777
-0.000601936
-0.000729177
0.000248157
0.000294243
0.000248157
0.000294243
-0.000184667
-0.000171246
-0.000275089
-0.000589557
7.60001e-05
0.000218805
-0.000589557
-0.000601936
0.000218805
0.000248157
0.000218805
0.000248157
-0.000280994
-0.000184667
7.60001e-05
0.000218805
-0.000221201
-0.000280994
0.00573235
0.00191549
-0.00151071
-0.000463437
0.00191549
-0.000275089
-0.000463437
7.60001e-05
-0.000463437
7.6e-05
0.00209959
-0.000221201
-0.00151071
-0.000463437
0.00436733
0.00209959
0.00637162
0.00981558
-0.00251374
-0.00385733
0.00981558
0.00573235
-0.00385733
-0.00151071
-0.00385733
-0.00151071
0.00429339
0.00436733
-0.00251374
-0.00385733
0.00164744
0.00429339
0.000673918
0.00198219
0.000286781
0.000165997
0.00198219
0.00637162
0.000165997
-0.00251374
0.000165997
-0.00251374
-0.000522079
0.00164744
0.000286781
0.000165997
0.00010114
-0.000522079
0.000189466
-0.000378094
0.000115448
-0.000480169
-0.000378094
0.000673918
-0.000480169
0.000286781
-0.000480169
0.000286781
0.000254664
0.00010114
0.000115448
-0.000480169
1.56478e-05
0.000254664
0.00425613
0.00358505
0.00130065
0.00160619
0.00130065
0.00160619
-0.000601936
-0.000729177
0.00690632
0.00468771
0.000755445
0.00129677
0.00468771
0.00425613
0.00129677
0.00130065
0.00129677
0.00130065
-0.000589557
-0.000601936
0.000755445
0.00129677
-0.000275089
-0.000589557
0.0228122
0.0142909
-0.0142677
-0.00404114
0.0142909
0.00690632
-0.00404114
0.000755445
-0.00404114
0.000755445
0.00191549
-0.000275089
-0.0142677
-0.00404114
0.00573235
0.00191549
0.0199295
0.0300659
-0.0132701
-0.0225639
0.0300659
0.0228122
-0.0225639
-0.0142677
-0.0225639
-0.0142677
0.00981558
0.00573235
-0.0132701
-0.0225639
0.00637162
0.00981557
0.0026691
0.00597367
-0.00110497
-0.00233407
0.00597367
0.0199295
-0.00233407
-0.0132701
-0.00233407
-0.0132701
0.00198219
0.00637162
-0.00110497
-0.00233407
0.000673918
0.00198219
0.000260687
-0.00110497
-0.000378094
0.000673918
0.75443
0.760469
0.186105
0.187505
0.186105
0.187505
0.00468771
0.00425613
0.183612
0.186105
0.00690632
0.00468771
0.725162
0.764529
0.131076
0.183612
0.131076
0.183612
0.0142909
0.00690632
0.118037
0.131076
0.0228122
0.0142909
0.0642665
0.118037
0.0300659
0.0228122
0.0526686
0.0642665
0.0199295
0.0300659
0.00172733
0.0363498
0.0026691
0.00597367
-2.22612e-07
-2.04262e-07
-1.15027e-07
1.26611e-07
-2.04262e-07
3.5393e-07
1.26611e-07
5.14098e-07
3.5393e-07
-6.18565e-07
5.14098e-07
-1.35862e-06
-6.18565e-07
1.1886e-06
-1.35862e-06
2.77789e-06
1.1886e-06
-1.92641e-06
2.77789e-06
-1.96248e-06
-1.92641e-06
3.87432e-06
-1.96248e-06
5.00087e-06