# vtk DataFile Version 2.0
Hex test
ASCII
DATASET UNSTRUCTURED_GRID
POINTS 10344 float
2 -18 0
2 -14.1667 0
4 -18 0
4 -14.1667 0
4 -18 0
4 -14.1667 0
6 -18 0
6 -14.1667 0
4 -14.1667 0
4 -12 0
6 -14.1667 0
6 -12 0
4 -12 0
4 -10 0
6 -12 0
6 -10 0
4 -10 0
4 -8 0
6 -10 0
6 -8 0
4 -8 0
4 -6 0
6 -8 0
6 -6 0
6 -18 0
6 -14.1667 0
8 -18 0
8 -14.1667 0
6 -14.1667 0
6 -12 0
8 -14.1667 0
8 -12 0
6 -12 0
6 -10 0
8 -12 0
8 -10 0
6 -10 0
6 -8 0
8 -10 0
8 -8 0
6 -8 0
6 -6 0
8 -8 0
8 -6 0
6 -6 0
6 -4 0
8 -6 0
8 -4 0
6 -4 0
6 -2 0
8 -4 0
8 -2 0
8 -18 0
8 -14.1667 0
10 -18 0
10 -14.1667 0
8 -14.1667 0
8 -12 0
10 -14.1667 0
10 -12 0
8 -12 0
8 -10 0
10 -12 0
10 -10 0
8 -10 0
8 -8 0
10 -10 0
10 -8 0
8 -8 0
8 -6 0
10 -8 0
10 -6 0
8 -6 0
8 -4 0
10 -6 0
10 -4 0
8 -4 0
8 -2 0
10 -4 0
10 -2 0
8 -2 0
8 5.55112e-17 0
10 -2 0
10 3.46945e-17 0
10 -18 0
10 -14.1667 0
12 -18 0
12 -14.1667 0
10 -14.1667 0
10 -12 0
12 -14.1667 0
12 -12 0
10 -12 0
10 -10 0
12 -12 0
12 -10 0
10 -10 0
10 -8 0
12 -10 0
12 -8 0
10 -8 0
10 -6 0
12 -8 0
12 -6 0
10 -6 0
10 -4 0
12 -6 0
12 -4 0
10 -4 0
10 -2 0
12 -4 0
12 -2 0
10 -2 0
10 5.55112e-17 0
12 -2 0
12 3.46945e-17 0
12 -18 0
12 -14.1667 0
14 -18 0
14 -14.1667 0
12 -14.1667 0
12 -12 0
14 -14.1667 0
14 -12 0
12 -12 0
12 -10 0
14 -12 0
14 -10 0
12 -10 0
12 -8 0
14 -10 0
14 -8 0
12 -8 0
12 -6 0
14 -8 0
14 -6 0
12 -6 0
12 -4 0
14 -6 0
14 -4 0
12 -4 0
12 -2 0
14 -4 0
14 -2 0
12 -2 0
12 5.55112e-17 0
14 -2 0
14 3.46945e-17 0
14 -18 0
14 -14.1667 0
16 -18 0
16 -14.1667 0
14 -14.1667 0
14 -12 0
16 -14.1667 0
16 -12 0
14 -12 0
14 -10 0
16 -12 0
16 -10 0
14 -10 0
14 -8 0
16 -10 0
16 -8 0
14 -8 0
14 -6 0
16 -8 0
16 -6 0
14 -6 0
14 -4 0
16 -6 0
16 -4 0
14 -4 0
14 -2 0
16 -4 0
16 -2 0
14 -2 0
14 5.55112e-17 0
16 -2 0
16 3.46945e-17 0
16 -18 0
16 -14.1667 0
18 -18 0
18 -14.1667 0
16 -14.1667 0
16 -12 0
18 -14.1667 0
18 -12 0
16 -12 0
16 -10 0
18 -12 0
18 -10 0
16 -10 0
16 -8 0
18 -10 0
18 -8 0
16 -8 0
16 -6 0
18 -8 0
18 -6 0
16 -6 0
16 -4 0
18 -6 0
18 -4 0
16 -4 0
16 -2 0
18 -4 0
18 -2 0
16 -2 0
16 5.55112e-17 0
18 -2 0
18 3.46945e-17 0
18 -18 0
18 -14.1667 0
20 -18 0
20 -14.1667 0
18 -14.1667 0
18 -12 0
20 -14.1667 0
20 -12 0
18 -12 0
18 -10 0
20 -12 0
20 -10 0
18 -10 0
18 -8 0
20 -10 0
20 -8 0
18 -8 0
18 -6 0
20 -8 0
20 -6 0
18 -6 0
18 -4 0
20 -6 0
20 -4 0
18 -4 0
18 -2 0
20 -4 0
20 -2 0
18 -2 0
18 6.245e-17 0
20 -2 0
20 6.245e-17 0
18 2.77556e-17 0
18 1 0
20 3.46945e-17 0
20 1 0
18 1 0
18 2 0
20 1 0
20 2 0
20 -14.1667 0
20 -12 0
22 -14.1667 0
22 -12 0
20 -12 0
20 -10 0
22 -12 0
22 -10 0
20 -10 0
20 -8 0
22 -10 0
22 -8 0
20 -8 0
20 -6 0
22 -8 0
22 -6 0
20 -6 0
20 -4 0
22 -6 0
22 -4 0
20 -4 0
20 -2 0
22 -4 0
22 -2 0
20 -2 0
20 -1 0
22 -2 0
22 -1 0
20 -1 0
20 6.93889e-18 0
22 -1 0
22 0 0
20 5.55112e-17 0
20 1 0
22 2.77556e-17 0
22 1 0
20 1 0
20 2 0
22 1 0
22 2 0
22 -6 0
22 -4 0
24 -6 0
24 -4 0
22 -4 0
22 -2 0
24 -4 0
24 -2 0
22 -2 0
22 -1 0
24 -2 0
24 -1 0
22 -1 0
22 1.38778e-17 0
24 -1 0
24 -6.93889e-18 0
22 2.08167e-17 0
22 1 0
24 -6.93889e-18 0
24 1 0
22 1 0
22 2 0
24 1 0
24 2 0
26 2 0
26 3 0
27 2 0
27 3 0
24 4 0
24 5 0
25 4 0
25 5 0
24 5 0
24 6 0
25 5 0
25 6 0
24 2 0
24 3 0
25 2 0
25 3 0
25 2 0
25 3 0
26 2 0
26 3 0
24 3 0
24 4 0
25 3 0
25 4 0
25 3 0
25 4 0
26 3 0
26 4 0
24 -6.93889e-18 0
24 1 0
26 0 0
26 1 0
24 1 0
24 2 0
26 1 0
26 2 0
24 -2 0
24 -1 0
26 -2 0
26 -1 0
24 -1 0
24 -2.08167e-17 0
26 -1 0
26 0 0
22 6 0
22 7 0
23 6 0
23 7 0
23 6 0
23 7 0
24 6 0
24 7 0
22 4 0
22 5 0
23 4 0
23 5 0
22 5 0
22 6 0
23 5 0
23 6 0
23 5 0
23 6 0
24 5 0
24 6 0
23 4 0
23 5 0
24 4 0
24 5 0
22 2 0
22 3 0
23 2 0
23 3 0
23 2 0
23 3 0
24 2 0
24 3 0
22 3 0
22 4 0
23 3 0
23 4 0
23 3 0
23 4 0
24 3 0
24 4 0
20 6 0
20 7 0
21 6 0
21 7 0
21 6 0
21 7 0
22 6 0
22 7 0
20 4 0
20 5 0
21 4 0
21 5 0
20 5 0
20 6 0
21 5 0
21 6 0
21 5 0
21 6 0
22 5 0
22 6 0
21 4 0
21 5 0
22 4 0
22 5 0
20 2 0
20 3 0
21 2 0
21 3 0
21 2 0
21 3 0
22 2 0
22 3 0
20 3 0
20 4 0
21 3 0
21 4 0
21 3 0
21 4 0
22 3 0
22 4 0
18 6 0
18 7 0
19 6 0
19 7 0
19 6 0
19 7 0
20 6 0
20 7 0
18 4 0
18 5 0
19 4 0
19 5 0
18 5 0
18 6 0
19 5 0
19 6 0
19 5 0
19 6 0
20 5 0
20 6 0
19 4 0
19 5 0
20 4 0
20 5 0
18 2 0
18 3 0
19 2 0
19 3 0
19 2 0
19 3 0
20 2 0
20 3 0
18 3 0
18 4 0
19 3 0
19 4 0
19 3 0
19 4 0
20 3 0
20 4 0
17 6 0
17 7 0
18 6 0
18 7 0
16 4 0
16 5 0
17 4 0
17 5 0
16 5 0
16 6 0
17 5 0
17 6 0
17 5 0
17 6 0
18 5 0
18 6 0
17 4 0
17 5 0
18 4 0
18 5 0
16 2 0
16 3 0
17 2 0
17 3 0
17 2 0
17 3 0
18 2 0
18 3 0
16 3 0
16 4 0
17 3 0
17 4 0
17 3 0
17 4 0
18 3 0
18 4 0
16 3.46945e-17 0
16 1 0
18 3.46945e-17 0
18 1 0
16 1 0
16 2 0
18 1 0
18 2 0
14 4 0
14 5 0
15 4 0
15 5 0
14 5 0
14 6 0
15 5 0
15 6 0
15 5 0
15 6 0
16 5 0
16 6 0
15 4 0
15 5 0
16 4 0
16 5 0
14 2 0
14 3 0
15 2 0
15 3 0
14 3 0
14 4 0
15 3 0
15 4 0
15 3 0
15 4 0
16 3 0
16 4 0
15 2 0
15 3 0
16 2 0
16 3 0
14 3.46945e-17 0
14 1 0
15 -2.60209e-18 0
15 1 0
15 -2.60209e-18 0
15 1 0
16 3.46945e-17 0
16 1 0
14 1 0
14 2 0
15 1 0
15 2 0
15 1 0
15 2 0
16 1 0
16 2 0
12 4 0
12 5 0
13 4 0
13 5 0
13 5 0
13 6 0
14 5 0
14 6 0
13 4 0
13 5 0
14 4 0
14 5 0
12 2 0
12 3 0
13 2 0
13 3 0
12 3 0
12 4 0
13 3 0
13 4 0
13 3 0
13 4 0
14 3 0
14 4 0
13 2 0
13 3 0
14 2 0
14 3 0
12 3.46945e-17 0
12 1 0
13 -2.60209e-18 0
13 1 0
13 -2.60209e-18 0
13 1 0
14 3.46945e-17 0
14 1 0
12 1 0
12 2 0
13 1 0
13 2 0
13 1 0
13 2 0
14 1 0
14 2 0
11 4 0
11 5 0
12 4 0
12 5 0
10 2 0
10 3 0
11 2 0
11 3 0
11 3 0
11 4 0
12 3 0
12 4 0
11 2 0
11 3 0
12 2 0
12 3 0
10 3.46945e-17 0
10 1 0
11 -2.60209e-18 0
11 1 0
11 -2.60209e-18 0
11 1 0
12 3.46945e-17 0
12 1 0
10 1 0
10 2 0
11 1 0
11 2 0
11 1 0
11 2 0
12 1 0
12 2 0
8 3.46945e-17 0
8 1 0
9 -2.60209e-18 0
9 1 0
9 -2.60209e-18 0
9 1 0
10 3.46945e-17 0
10 1 0
14 16 0
14 17 0
16 16 0
16 17 0
14 17 0
14 18 0
16 17 0
16 18 0
14 18 0
14 19 0
16 18 0
16 19 0
14 19 0
14 20 0
16 19 0
16 20 0
14 20 0
14 21 0
16 20 0
16 21 0
14 21 0
14 22 0
16 21 0
16 22 0
16 14 0
16 15 0
18 14 0
18 15 0
16 15 0
16 16 0
18 15 0
18 16 0
16 16 0
16 17 0
18 16 0
18 17 0
16 17 0
16 18 0
18 17 0
18 18 0
16 18 0
16 19 0
18 18 0
18 19 0
16 19 0
16 20 0
18 19 0
18 20 0
16 20 0
16 21 0
18 20 0
18 21 0
16 21 0
16 22 0
18 21 0
18 22 0
18 14 0
18 15 0
20 14 0
20 15 0
18 15 0
18 16 0
20 15 0
20 16 0
18 16 0
18 18 0
20 16 0
20 18 0
18 18 0
18 20 0
20 18 0
20 20 0
18 20 0
18 22 0
20 20 0
20 22 0
20 14 0
20 16 0
22 14 0
22 16 0
20 16 0
20 18 0
22 16 0
22 18 0
20 18 0
20 20 0
22 18 0
22 20 0
20 20 0
20 22 0
22 20 0
22 22 0
22 14 0
22 16 0
24 14 0
24 16 0
22 16 0
22 18 0
24 16 0
24 18 0
22 18 0
22 20 0
24 18 0
24 20 0
22 20 0
22 22 0
24 20 0
24 22 0
24 10 0
24 11 0
25 10 0
25 11 0
24 8 0
24 9 0
25 8 0
25 9 0
24 9 0
24 10 0
25 9 0
25 10 0
24 7 0
24 8 0
25 7 0
25 8 0
22 12 0
22 13 0
24 12 0
24 13 0
22 13 0
22 14 0
24 13 0
24 14 0
22 10 0
22 11 0
23 10 0
23 11 0
23 10 0
23 11 0
24 10 0
24 11 0
22 11 0
22 12 0
23 11 0
23 12 0
23 11 0
23 12 0
24 11 0
24 12 0
22 8 0
22 9 0
23 8 0
23 9 0
22 9 0
22 10 0
23 9 0
23 10 0
23 9 0
23 10 0
24 9 0
24 10 0
23 8 0
23 9 0
24 8 0
24 9 0
22 7 0
22 8 0
23 7 0
23 8 0
23 7 0
23 8 0
24 7 0
24 8 0
20 12 0
20 13 0
22 12 0
22 13 0
20 13 0
20 14 0
22 13 0
22 14 0
20 10 0
20 11 0
21 10 0
21 11 0
21 10 0
21 11 0
22 10 0
22 11 0
20 11 0
20 12 0
21 11 0
21 12 0
21 11 0
21 12 0
22 11 0
22 12 0
20 8 0
20 9 0
21 8 0
21 9 0
20 9 0
20 10 0
21 9 0
21 10 0
21 9 0
21 10 0
22 9 0
22 10 0
21 8 0
21 9 0
22 8 0
22 9 0
20 7 0
20 8 0
21 7 0
21 8 0
21 7 0
21 8 0
22 7 0
22 8 0
18 12 0
18 13 0
19 12 0
19 13 0
19 12 0
19 13 0
20 12 0
20 13 0
18 13 0
18 14 0
19 13 0
19 14 0
19 13 0
19 14 0
20 13 0
20 14 0
18 10 0
18 11 0
19 10 0
19 11 0
18 11 0
18 12 0
19 11 0
19 12 0
19 11 0
19 12 0
20 11 0
20 12 0
19 10 0
19 11 0
20 10 0
20 11 0
18 8 0
18 9 0
19 8 0
19 9 0
18 9 0
18 10 0
19 9 0
19 10 0
19 9 0
19 10 0
20 9 0
20 10 0
19 8 0
19 9 0
20 8 0
20 9 0
18 7 0
18 8 0
19 7 0
19 8 0
19 7 0
19 8 0
20 7 0
20 8 0
16 12 0
16 13 0
17 12 0
17 13 0
17 12 0
17 13 0
18 12 0
18 13 0
16 13 0
16 14 0
17 13 0
17 14 0
17 13 0
17 14 0
18 13 0
18 14 0
16 10 0
16 11 0
17 10 0
17 11 0
16 11 0
16 12 0
17 11 0
17 12 0
17 11 0
17 12 0
18 11 0
18 12 0
17 10 0
17 11 0
18 10 0
18 11 0
16 8 0
16 9 0
17 8 0
17 9 0
16 9 0
16 10 0
17 9 0
17 10 0
17 9 0
17 10 0
18 9 0
18 10 0
17 8 0
17 9 0
18 8 0
18 9 0
16 6 0
16 7 0
17 6 0
17 7 0
16 7 0
16 8 0
17 7 0
17 8 0
17 7 0
17 8 0
18 7 0
18 8 0
14 14 0
14 15 0
16 14 0
16 15 0
14 15 0
14 16 0
16 15 0
16 16 0
14 12 0
14 13 0
15 12 0
15 13 0
15 12 0
15 13 0
16 12 0
16 13 0
14 13 0
14 14 0
15 13 0
15 14 0
15 13 0
15 14 0
16 13 0
16 14 0
14 10 0
14 11 0
15 10 0
15 11 0
14 11 0
14 12 0
15 11 0
15 12 0
15 11 0
15 12 0
16 11 0
16 12 0
15 10 0
15 11 0
16 10 0
16 11 0
14 8 0
14 9 0
15 8 0
15 9 0
14 9 0
14 10 0
15 9 0
15 10 0
15 9 0
15 10 0
16 9 0
16 10 0
15 8 0
15 9 0
16 8 0
16 9 0
14 6 0
14 7 0
15 6 0
15 7 0
14 7 0
14 8 0
15 7 0
15 8 0
15 7 0
15 8 0
16 7 0
16 8 0
15 6 0
15 7 0
16 6 0
16 7 0
12 18 0
12 19 0
14 18 0
14 19 0
12 19 0
12 20 0
14 19 0
14 20 0
12 16 0
12 17 0
14 16 0
14 17 0
12 17 0
12 18 0
14 17 0
14 18 0
12 14 0
12 15 0
13 14 0
13 15 0
13 14 0
13 15 0
14 14 0
14 15 0
12 15 0
12 16 0
13 15 0
13 16 0
13 15 0
13 16 0
14 15 0
14 16 0
12 12 0
12 13 0
13 12 0
13 13 0
12 13 0
12 14 0
13 13 0
13 14 0
13 13 0
13 14 0
14 13 0
14 14 0
13 12 0
13 13 0
14 12 0
14 13 0
12 10 0
12 11 0
13 10 0
13 11 0
12 11 0
12 12 0
13 11 0
13 12 0
13 11 0
13 12 0
14 11 0
14 12 0
13 10 0
13 11 0
14 10 0
14 11 0
12 8 0
12 9 0
13 8 0
13 9 0
12 9 0
12 10 0
13 9 0
13 10 0
13 9 0
13 10 0
14 9 0
14 10 0
13 8 0
13 9 0
14 8 0
14 9 0
12 6 0
12 7 0
13 6 0
13 7 0
12 7 0
12 8 0
13 7 0
13 8 0
13 7 0
13 8 0
14 7 0
14 8 0
13 6 0
13 7 0
14 6 0
14 7 0
12 5 0
12 6 0
13 5 0
13 6 0
10 16 0
10 17 0
11 16 0
11 17 0
11 16 0
11 17 0
12 16 0
12 17 0
10 14 0
10 15 0
11 14 0
11 15 0
10 15 0
10 16 0
11 15 0
11 16 0
11 15 0
11 16 0
12 15 0
12 16 0
11 14 0
11 15 0
12 14 0
12 15 0
10 12 0
10 13 0
11 12 0
11 13 0
10 13 0
10 14 0
11 13 0
11 14 0
11 13 0
11 14 0
12 13 0
12 14 0
11 12 0
11 13 0
12 12 0
12 13 0
10 10 0
10 11 0
11 10 0
11 11 0
10 11 0
10 12 0
11 11 0
11 12 0
11 11 0
11 12 0
12 11 0
12 12 0
11 10 0
11 11 0
12 10 0
12 11 0
10 8 0
10 9 0
11 8 0
11 9 0
[...]
POINT_DATA 10344
SCALARS phi float 1
LOOKUP_TABLE default
-2.38908e-06
-2.48648e-06
-1.54277e-06
-1.50575e-06
-1.54277e-06
-1.50575e-06
1.60725e-06
1.74564e-06
-1.50575e-06
2.40466e-06
1.74564e-06
-2.5163e-06
2.40466e-06
-4.09024e-06
-2.5163e-06
4.1582e-06
-4.09024e-06
7.47178e-06
4.1582e-06
-7.63987e-06
7.47178e-06
-1.4103e-05
-7.63987e-06
1.58932e-05
1.60725e-06
1.74564e-06
1.66404e-06
2.57628e-06
1.74564e-06
-2.5163e-06
2.57628e-06
-1.79291e-06
-2.5163e-06
4.1582e-06
-1.79291e-06
1.6807e-06
4.1582e-06
-7.63987e-06
1.68071e-06
-2.17277e-06
-7.63987e-06
1.58932e-05
-2.17277e-06
1.1187e-05
1.58932e-05
-3.14297e-05
1.1187e-05
-2.28159e-05
-3.14297e-05
2.24884e-05
-2.28159e-05
2.69436e-05
1.66404e-06
2.57629e-06
-6.58526e-06
1.6061e-06
2.57628e-06
-1.79291e-06
1.6061e-06
1.90104e-05
-1.79291e-06
1.68071e-06
1.90104e-05
-4.55452e-05
1.6807e-06
-2.17277e-06
-4.55452e-05
9.3516e-05
-2.17277e-06
1.1187e-05
9.3516e-05
-0.000122373
1.1187e-05
-2.28159e-05
-0.000122373
0.000222343
-2.28159e-05
2.69436e-05
0.000222343
-0.000302047
2.69436e-05
3.47398e-05
-0.000302047
-0.000246133
-6.58526e-06
1.6061e-06
-1.45455e-06
2.45862e-07
1.6061e-06
1.90104e-05
2.45862e-07
4.05495e-06
1.90104e-05
-4.55452e-05
4.05495e-06
-9.60498e-06
-4.55452e-05
9.3516e-05
-9.60498e-06
1.99569e-05
9.3516e-05
-0.000122373
1.99569e-05
-2.57231e-05
-0.000122373
0.000222343
-2.57231e-05
4.66583e-05
0.000222343
-0.000302047
4.66583e-05
-5.88771e-05
-0.000302047
-0.000246133
-5.88771e-05
-3.89405e-05
-1.45455e-06
2.45862e-07
-2.8014e-08
-1.7692e-08
2.45862e-07
4.05495e-06
-1.76919e-08
5.11225e-08
4.05495e-06
-9.60498e-06
5.11225e-08
-7.80943e-08
-9.60498e-06
1.99569e-05
-7.80942e-08
1.81263e-07
1.99569e-05
-2.57231e-05
1.81263e-07
-3.74568e-07
-2.57231e-05
4.66583e-05
-3.74569e-07
8.30869e-07
4.66583e-05
-5.88771e-05
8.30869e-07
-3.65001e-06
-5.88771e-05
-3.89405e-05
-3.65001e-06
3.27931e-06
-2.8014e-08
-1.7692e-08
5.10959e-07
5.49472e-07
-1.7692e-08
5.11224e-08
5.49472e-07
-7.276e-07
5.11226e-08
-7.80941e-08
-7.276e-07
1.12828e-06
-7.80943e-08
1.81262e-07
1.12828e-06
-1.83529e-06
1.81263e-07
-3.74569e-07
-1.83529e-06
4.0241e-06
-3.74568e-07
8.30869e-07
4.0241e-06
-7.26377e-06
8.3087e-07
-3.65001e-06
-7.26377e-06
1.63725e-05
-3.65001e-06
3.27931e-06
1.63725e-05
-1.25759e-05
5.10959e-07
5.49473e-07
-1.74261e-06
-2.28642e-06
5.49472e-07
-7.276e-07
-2.28642e-06
2.04378e-06
-7.276e-07
1.12828e-06
2.04378e-06
-2.40961e-06
1.12828e-06
-1.83529e-06
-2.40961e-06
3.87251e-06
-1.83529e-06
4.0241e-06
3.87251e-06
-9.95918e-06
4.0241e-06
-7.26377e-06
-9.95918e-06
1.69116e-05
-7.26378e-06
1.63725e-05
1.69116e-05
-3.73097e-05
1.63725e-05
-1.25759e-05
-3.73097e-05
1.22661e-05
-1.74261e-06
-2.28642e-06
5.59688e-07
4.83907e-08
-2.28642e-06
2.04378e-06
4.83905e-08
-1.3848e-06
2.04378e-06
-2.40961e-06
-1.38479e-06
3.19184e-06
-2.40961e-06
3.87251e-06
3.19184e-06
-6.59286e-06
3.87251e-06
-9.95918e-06
-6.59286e-06
9.23772e-06
-9.95918e-06
1.69116e-05
9.23772e-06
-1.8457e-05
1.69116e-05
-3.73097e-05
-1.8457e-05
3.16075e-05
-3.73097e-05
1.22661e-05
3.16075e-05
-4.80146e-05
1.22661e-05
0.000173869
-4.80146e-05
0.000193259
0.000173869
0.000718393
0.000193259
0.000192615
4.83906e-08
-1.3848e-06
-1.64635e-06
3.32309e-06
-1.3848e-06
3.19184e-06
3.32309e-06
-6.0391e-06
3.19184e-06
-6.59286e-06
-6.0391e-06
1.14404e-05
-6.59286e-06
9.23772e-06
1.14404e-05
-1.95598e-05
9.23772e-06
-1.8457e-05
-1.95598e-05
3.69098e-05
-1.8457e-05
3.16074e-05
3.69098e-05
-7.06505e-05
3.16075e-05
-3.54925e-05
-7.06505e-05
6.23453e-05
-3.54925e-05
-4.80146e-05
6.23453e-05
1.76065e-05
-4.80146e-05
0.000193259
1.76066e-05
-0.000119978
0.000193259
0.000192615
-0.000119978
4.45292e-05
-1.95598e-05
3.69099e-05
1.59129e-06
-2.28202e-06
3.69099e-05
-7.06505e-05
-2.28202e-06
1.77984e-05
-7.06505e-05
6.23453e-05
1.77984e-05
7.54698e-06
6.23453e-05
1.76065e-05
7.54698e-06
-8.16892e-05
1.76066e-05
-0.000119978
-8.16892e-05
7.7785e-05
-0.000119978
4.45292e-05
7.7785e-05
-5.52949e-05
-6.11628e-05
0.000317905
-0.000180849
0.000392086
-0.000822408
-0.00307994
0.00142898
0.00654228
-0.00307994
-0.0012339
0.00654228
0.00176646
-5.52949e-05
-7.00885e-05
-7.33072e-05
-0.000260534
-7.33072e-05
-0.000260534
-6.11628e-05
0.000317905
-7.00885e-05
-0.000822408
-0.000260534
0.00142898
-0.000260534
0.00142898
0.000317905
-0.0032248
-8.16892e-05
7.7785e-05
6.74267e-05
-5.51456e-05
7.7785e-05
-5.52949e-05
-5.51456e-05
-6.11628e-05
1.77984e-05
7.54698e-06
-2.25949e-05
-0.000195485
7.54699e-06
-8.16892e-05
-0.000195485
6.74267e-05
-0.00180624
0.00504065
-6.99924e-05
0.00160358
-6.99924e-05
0.00160358
-0.0012339
0.000757722
-0.000702282
7.66435e-05
0.000168926
0.00199335
7.66434e-05
-0.00180623
0.00199335
-6.99924e-05
0.00199335
-6.99924e-05
-0.00307994
-0.0012339
0.000168926
0.00199335
-0.000822408
-0.00307994
4.45292e-05
0.000386623
4.16588e-06
0.000356749
4.16588e-06
0.000356749
-5.52949e-05
-7.00885e-05
0.000386623
-0.000702282
0.000356749
0.000168926
0.000356749
0.000168926
-7.00885e-05
-0.000822408
0.0107708
0.0501607
-0.00211562
0.0180822
-0.00211562
0.0180822
-0.00180624
0.00504065
0.00157514
-0.00338841
-0.000505196
0.00212556
-0.00338841
0.0107708
0.00212556
-0.00211562
0.00212556
-0.00211562
7.66432e-05
-0.00180624
-0.000505195
0.00212556
-0.000702282
7.66433e-05
0.000192615
-0.000290532
4.21229e-05
-0.000463836
4.21229e-05
-0.000463836
4.45292e-05
0.000386623
-0.000290532
0.00157514
-0.000463835
-0.000505195
-0.000463835
-0.000505195
0.000386623
-0.000702282
0.0129321
0.0564453
0.0152419
0.0943652
0.0152419
0.0943652
0.0107708
0.0501607
0.00222969
-0.00391198
0.00248413
-0.00412664
-0.00391198
0.0129321
-0.00412664
0.0152419
-0.00412664
0.0152419
-0.00338841
0.0107708
0.00248413
-0.00412664
0.00157514
-0.00338841
0.000718393
-0.000941516
0.000592023
-0.000964516
0.000592023
-0.000964516
0.000192615
-0.000290532
-0.000941516
0.00222969
-0.000964516
0.00248413
-0.000964516
0.00248413
-0.000290532
0.00157514
0.00312102
0.027969
0.0129321
0.0564453
-0.000423948
0.000924348
0.000279862
2.22041e-05
0.000924348
-0.000597982
2.22039e-05
0.00312102
2.2204e-05
0.00312102
-0.00391198
0.0129321
0.000279862
2.22039e-05
0.00222969
-0.00391198
-0.000271077
0.00066829
0.000180631
-0.000196094
0.000180631
-0.000196094
0.000718393
-0.000941516
0.00066829
-0.000423948
-0.000196094
0.000279862
-0.000196094
0.000279862
-0.000941516
0.00222969
-1.25759e-05
-8.6988e-05
1.22661e-05
0.000173869
-8.6988e-05
-0.000271077
0.000173869
0.000718393
-0.000190201
0.000394017
0.000275478
-0.000204768
0.000394017
0.000132419
-0.000204768
0.000584291
-0.000204768
0.00058429
0.000924348
-0.000597982
0.000275478
-0.000204768
-0.000423948
0.000924348
4.62122e-06
0.000121792
-5.56467e-05
8.26159e-05
0.000121792
-0.000190201
8.26159e-05
0.000275478
8.26159e-05
0.000275478
0.00066829
-0.000423948
-5.56467e-05
8.26159e-05
-0.000271077
0.00066829
3.27931e-06
-1.09666e-05
-1.26862e-05
8.48314e-06
-1.26862e-05
8.48314e-06
-1.25759e-05
-8.6988e-05
-1.09666e-05
4.62122e-06
8.48314e-06
-5.56467e-05
8.48314e-06
-5.56467e-05
-8.6988e-05
-0.000271077
0.00203897
0.0276228
-7.07197e-05
0.00535518
0.00535519
0.0288041
0.000394017
0.000132419
-7.07197e-05
0.00535518
-0.000190201
0.000394016
0.000135098
-0.000792439
3.1772e-05
0.000293891
-0.000792439
0.00203897
0.000293891
-7.07197e-05
0.000293891
-7.07197e-05
0.000121792
-0.000190201
3.1772e-05
0.000293891
4.62123e-06
0.000121792
-3.89405e-05
-0.000589117
1.25519e-05
1.38458e-05
1.25519e-05
1.38458e-05
3.27932e-06
-1.09666e-05
-0.000589117
0.000135098
1.38458e-05
3.1772e-05
1.38458e-05
3.1772e-05
-1.09665e-05
4.62123e-06
0.0115594
0.068402
0.00203897
0.0276228
0.00122459
-0.00341295
0.00130831
-0.0046881
-0.0046881
0.0115594
-0.000792439
0.00203897
0.00130831
-0.0046881
0.000135098
-0.000792439
-0.000246133
-0.00279831
-0.000172383
-0.00170885
-0.000172383
-0.00170885
-3.89405e-05
-0.000589117
-0.0027983
0.00122459
-0.00170885
0.00130831
-0.00170885
0.00130831
-0.000589117
0.000135098
3.47398e-05
0.000221624
-0.00013785
-0.00148328
-0.00013785
-0.00148328
-0.000246134
-0.0027983
1.00015
0.998951
1.0001
1.00008
0.998951
0.999305
1.00008
1.00048
0.999305
0.999875
1.00048
1.00026
0.999875
0.999864
1.00026
0.999931
0.999864
0.999264
0.999931
1.00028
0.999264
0.998813
1.00028
1.00087
0.999903
0.999409
1.00023
0.999525
0.999409
1.00011
0.999525
1.0003
1.0001
1.00008
1.0003
1.00018
1.00008
1.00048
1.00018
0.999651
1.00048
1.00026
0.999651
0.999796
1.00026
0.999931
0.999796
1.0001
0.999931
1.00028
1.0001
0.999879
1.00028
1.00087
0.999879
0.999508
1.00023
0.999525
1.00015
0.99974
0.999525
1.0003
0.99974
0.99998
1.0003
0.999651
0.99998
1.00004
0.999651
1.0001
1.00004
0.999977
1.0001
0.999508
0.999977
1.00018
1.00015
0.99998
0.99938
0.999824
0.99998
1.00004
0.999824
1.00024
1.00004
0.999977
1.00024
1.00001
0.999977
1.00018
1.00001
0.999991
0.99938
0.999824
1.00043
0.999645
0.999824
1.00024
0.999645
0.999946
1.00024
1.00001
0.999946
0.999751
1.00001
0.999991
0.999751
0.999843
0.867172
0.989656
0.869734
0.986247
0.013951
0.227084
0.0107585
0.237083
0.227084
0.867172
0.237083
0.869734
0.000757722
0.013951
0.00213413
0.0107585
1.00452
0.998079
1.00397
1.00097
0.998079
0.99938
1.00097
1.00043
0.898731
0.986764
0.874541
0.985245
0.874541
0.985245
0.867172
0.989657
0.986764
1.00452
0.985245
1.00437
0.985245
1.00437
0.989657
1.00397
0.0214928
0.298852
0.0112457
0.239791
0.298852
0.898731
0.239791
0.874541
0.239791
0.874541
0.227084
0.867172
0.0112457
0.23979
0.013951
0.227084
0.00504064
0.0214928
0.00160358
0.0112457
0.00160358
0.0112457
0.000757722
0.013951
0.998949
1.00047
1.00452
0.998079
1.00047
1.00015
0.998079
0.99938
0.985702
1.00024
0.960367
0.99578
0.960367
0.99578
0.898731
0.986764
1.00024
0.99895
0.99578
1.0018
0.99578
1.0018
0.986764
1.00452
0.454084
0.913984
0.108465
0.606676
0.913984
0.985702
0.606676
0.960367
0.606676
0.960367
0.298852
0.898731
0.108465
0.606676
0.0214928
0.298852
0.0501607
0.454084
0.0180822
0.108465
0.0180822
0.108465
0.00504065
0.0214928
0.998039
0.999638
0.998458
1.00083
0.998458
1.00083
0.998949
1.00047
0.999638
1.00023
1.00083
1.00017
1.00083
1.00017
1.00047
1.00015
0.986904
1.00301
0.992199
1.00323
1.00301
0.998039
1.00323
0.998458
1.00323
0.998458
1.00024
0.99895
0.992199
1.00323
0.985702
1.00024
0.501891
0.940003
0.657156
0.972091
0.940003
0.986904
0.972091
0.992199
0.972091
0.992199
0.913984
0.985702
0.657156
0.972091
0.454084
0.913984
0.0564453
0.501891
0.0943652
0.657156
0.0943652
0.657156
0.0501606
0.454084
0.995239
0.999969
0.998519
0.999594
0.998519
0.999594
0.998039
0.999638
0.999969
0.999903
0.999594
1.00063
0.999594
1.00063
0.999638
1.00023
0.819036
0.966421
0.970326
0.995654
0.966421
0.995239
0.995654
0.998519
0.995654
0.998519
1.00301
0.998039
0.970326
0.995654
0.986904
1.00301
0.0628686
0.386527
0.24761
0.804152
0.386527
0.819036
0.804152
0.970326
0.804152
0.970326
0.940003
0.986903
0.24761
0.804152
0.501891
0.940003
-0.000597982
0.0111519
0.00312102
0.027969
0.0111519
0.0628686
0.027969
0.24761
0.027969
0.24761
0.0564453
0.501891
0.998684
1.00085
0.999903
0.999409
1.00085
1.00015
0.999409
1.00011
0.969267
0.996984
0.981493
0.997425
0.981493
0.997425
0.995239
0.999969
0.996984
0.998684
0.997425
0.997544
0.997425
0.997544
0.999969
0.999903
0.156637
0.73143
0.333301
0.8526
0.73143
0.969267
0.8526
0.981493
0.8526
0.981493
0.966421
0.995239
0.333301
0.8526
0.819036
0.966421
9.64478e-05
0.0312569
0.0145904
0.0531518
0.0312569
0.156637
0.0531518
0.333301
0.0531518
0.333301
0.386527
0.819036
0.0145904
0.0531518
0.0628686
0.386527
0.000132419
0.00462505
0.000584291
0.000590154
0.00462505
9.6447e-05
0.000590155
0.0145904
0.000590155
0.0145904
0.0111519
0.0628686
0.000584291
0.000590155
-0.000597982
0.0111519
0.999533
1.00008
0.999305
0.999875
1.00008
0.999765
0.999875
0.999864
0.996423
0.998158
1.00015
0.998951
0.998158
0.999533
0.998951
0.999305
0.965156
0.98734
0.997997
0.993696
0.997997
0.993696
0.998684
1.00085
0.98734
0.996423
0.993696
0.998162
0.993696
0.998162
1.00085
1.00015
0.78286
0.924234
0.931376
0.98086
0.924234
0.965156
0.98086
0.997997
0.98086
0.997997
0.996984
0.998684
0.931376
0.98086
0.969267
0.996984
0.510324
0.636158
0.279953
0.73184
0.636158
0.78286
0.73184
0.931376
0.73184
0.931376
0.73143
0.969267
0.279953
0.73184
0.156637
0.73143
0.565153
0.495215
0.16686
0.113795
0.495215
0.510324
0.113795
0.279953
0.113795
0.279953
0.0312569
0.156637
0.16686
0.113795
9.64449e-05
0.0312569
0.178717
0.4774
0.0288041
0.110632
0.4774
0.565153
0.110632
0.16686
0.110632
0.16686
0.00462505
9.6443e-05
0.0288041
0.110632
0.000132419
0.00462505
0.0276228
0.178717
0.00535519
0.0288041
0.734346
0.924995
0.971042
0.988645
0.971042
0.988645
0.996423
0.998158
0.340508
0.419822
0.828494
0.898348
0.419822
0.734346
0.898348
0.971042
0.898348
0.971042
0.98734
0.996423
0.828494
0.898348
0.965156
0.98734
0.497775
0.443755
0.581881
0.748832
0.443755
0.340507
0.748832
0.828494
0.748832
0.828494
0.924234
0.965156
0.581881
0.748832
0.78286
0.924234
0.571585
0.561051
0.584236
0.521416
0.561051
0.497775
0.521416
0.581881
0.521416
0.581881
0.636158
0.78286
0.584236
0.521416
0.510324
0.636158
0.73822
0.64389
0.746563
0.699147
0.64389
0.571585
0.699147
0.584236
0.699147
0.584236
0.495215
0.510324
0.746563
0.699147
0.565153
0.495215
0.50691
0.780996
0.411231
0.730743
0.780996
0.73822
0.730744
0.746563
0.730744
0.746563
0.4774
0.565153
0.411231
0.730744
0.178717
0.4774
0.068402
0.411231
0.0276228
0.178717
0.0485091
0.166346
0.419822
0.734346
0.056959
0.0485091
0.340508
0.419822
0.312124
0.0554556
0.361046
0.137208
0.0554556
0.0132344
0.137208
0.056959
0.137208
0.0569589
0.443755
0.340508
0.361046
0.137208
0.497775
0.443755
0.660134
0.681935
0.633102
0.650032
0.681935
0.312124
0.650032
0.361046
0.650032
0.361046
0.561051
0.497775
0.633102
0.650032
0.571585
0.561051
0.434889
0.543338
0.639594
0.601016
0.543338
0.660134
0.601016
0.633102
0.601016
0.633102
0.64389
0.571585
0.639594
0.601016
0.73822
0.64389
0.662173
0.639594
0.780996
0.73822
7.78029e-09
7.52458e-09
1.1955e-08
1.3631e-08
7.52458e-09
-1.13855e-08
1.3631e-08
-1.64028e-08
-1.13855e-08
1.89337e-08
-1.64028e-08
2.47832e-08
1.89337e-08
-3.44179e-08
2.47832e-08
-4.34014e-08
-3.44179e-08
6.73417e-08
-4.34014e-08
9.7302e-08
6.73417e-08
-1.27912e-07
9.7302e-08
-1.86321e-07
-1.27912e-07
2.56981e-07
-1.86321e-07
3.69641e-07
2.56981e-07
-6.03272e-07
3.69641e-07
-8.28194e-07
-6.03272e-07
1.17648e-06
-8.28194e-07
1.7989e-06
1.17648e-06
1.31449e-06
1.79889e-06
1.26815e-06
1.1955e-08
1.3631e-08
-6.67826e-09
-5.27075e-09
1.3631e-08
-1.64028e-08
-5.27075e-09
1.33961e-08
-1.64028e-08
2.47832e-08
1.33961e-08
-2.53809e-08
2.47832e-08
-4.34014e-08
-2.53808e-08
4.75913e-08
-4.34014e-08
9.7302e-08
4.75913e-08
-7.82442e-08
9.7302e-08
-1.86321e-07
-7.82442e-08
1.46556e-07
-1.86321e-07
3.69641e-07
1.46556e-07
-2.93967e-07
3.69641e-07
-8.28194e-07
-2.93967e-07
7.23268e-07
-8.28194e-07
1.79889e-06
7.23268e-07
-1.2032e-06
1.79889e-06
1.26815e-06
-1.2032e-06
-2.12166e-06
-6.67826e-09
-5.27075e-09
3.10836e-09
-2.43114e-09
-5.27075e-09
1.33961e-08
-2.43114e-09
-1.46284e-08
1.33961e-08
-2.53808e-08
-1.46284e-08
3.50076e-08
-2.53809e-08
4.75913e-08
3.50076e-08
-6.9714e-08
4.75913e-08
-7.82442e-08
-6.9714e-08
8.42892e-08
-7.82442e-08
1.46556e-07
8.42892e-08
-1.52024e-07
1.46556e-07
-2.93967e-07
-1.52024e-07
3.10101e-07
-2.93967e-07
7.23268e-07
3.10101e-07
-8.45924e-07
7.23268e-07
-1.2032e-06
-8.45924e-07
9.61539e-07
-1.2032e-06
-2.12166e-06
9.61539e-07
3.62035e-06
3.10836e-09
-2.43114e-09
-8.00114e-10
1.30898e-08
-2.43114e-09
-1.46284e-08
1.30898e-08
2.11012e-08
-1.46284e-08
3.50076e-08
2.11012e-08
-5.90298e-08
3.50076e-08
-6.9714e-08
-5.90298e-08
1.22481e-07
-6.9714e-08
8.42892e-08
1.22481e-07
-1.22452e-07
8.42892e-08
-1.52024e-07
-1.22452e-07
2.15263e-07
-1.52024e-07
3.10101e-07
2.15263e-07
-4.37421e-07
3.10101e-07
-8.45924e-07
-4.37421e-07
1.30108e-06
-8.45924e-07
9.61539e-07
1.30108e-06
-1.10705e-06
9.61539e-07
3.62035e-06
-1.10705e-06
-6.49912e-06
-8.00114e-10
1.30898e-08
3.32446e-08
1.91128e-08
1.30898e-08
2.11012e-08
1.91128e-08
-7.25025e-08
2.11012e-08
-5.90298e-08
-7.25025e-08
1.46239e-07
-5.90298e-08
1.22481e-07
1.46239e-07
-2.81455e-07
1.22481e-07
-1.22452e-07
-2.81455e-07
4.25729e-07
-1.22452e-07
2.15263e-07
4.25729e-07
-7.90341e-07
2.15263e-07
-4.37421e-07
-7.90341e-07
1.58678e-06
-4.37421e-07
1.30108e-06
1.58678e-06
-3.9363e-06
1.30108e-06
-1.10705e-06
-3.9363e-06
6.32978e-06
-1.10705e-06
-6.49912e-06
6.32978e-06
1.1947e-05
3.32446e-08
1.91128e-08
6.33034e-09
3.21258e-08
1.91128e-08
-7.25025e-08
3.21258e-08
2.39375e-08
-7.25025e-08
1.46239e-07
2.39375e-08
-8.29834e-08
1.46239e-07
-2.81455e-07
-8.29834e-08
1.84391e-07
-2.81455e-07
4.25729e-07
1.84391e-07
-1.7143e-07
4.25729e-07
-7.90341e-07
-1.7143e-07
3.28851e-07
-7.90341e-07
1.58678e-06
3.28851e-07
-8.48501e-07
1.58678e-06
-3.9363e-06
-8.48502e-07
6.69379e-06
-3.9363e-06
6.32978e-06
6.69379e-06
1.15392e-05
6.32978e-06
1.32116e-05
1.15392e-05
-1.89154e-05
1.32116e-05
1.1947e-05
-1.89154e-05
-3.24928e-05
6.33034e-09
3.21258e-08
7.84575e-07
7.21918e-07
3.21258e-08
2.39375e-08
7.21918e-07
-1.31188e-06
2.39375e-08
-8.29834e-08
-1.31188e-06
2.30243e-06
-8.29834e-08
1.84391e-07
2.30243e-06
-4.2194e-06
1.84392e-07
-1.7143e-07
-4.2194e-06
7.49699e-06
-1.7143e-07
3.28851e-07
7.49698e-06
-1.39454e-05
3.28851e-07
-8.48502e-07
-1.39454e-05
2.62246e-05
-8.48502e-07
6.69379e-06
2.62246e-05
-3.66268e-05
6.69379e-06
1.15392e-05
-3.66268e-05
0.000137824
1.15392e-05
-1.89154e-05
0.000137824
-1.66968e-06
-1.89154e-05
-3.24928e-05
-1.66968e-06
0.000112848
7.84575e-07
7.21918e-07
4.62951e-07
6.50569e-07
7.21918e-07
-1.31188e-06
6.50569e-07
-4.96593e-07
-1.31188e-06
2.30243e-06
-4.96593e-07
5.32951e-07
2.30243e-06
-4.2194e-06
5.32951e-07
-7.57564e-07
-4.2194e-06
7.49698e-06
-7.57565e-07
2.8543e-06
7.49699e-06
-1.39454e-05
2.8543e-06
-5.5206e-06
-1.39454e-05
2.62246e-05
-5.5206e-06
9.64054e-06
2.62246e-05
-3.66268e-05
9.64055e-06
-9.67167e-06
-3.66268e-05
0.000137824
-9.67167e-06
1.1367e-05
4.62951e-07
6.50569e-07
-2.38908e-06
-2.48648e-06
6.50569e-07
-4.96593e-07
-2.48648e-06
3.61412e-06
-4.96593e-07
5.32951e-07
3.61412e-06
-5.9094e-06
5.32951e-07
-7.57564e-07
-5.9094e-06
1.0529e-05
-7.57564e-07
2.8543e-06
1.0529e-05
-2.04715e-05
2.8543e-06
-5.5206e-06
-2.04715e-05
3.78759e-05
-5.5206e-06
9.64054e-06
3.78759e-05
-5.95709e-05
9.64054e-06
-9.67167e-06
-5.95709e-05
-3.56445e-07
-9.67167e-06
6.87599e-05
-3.56446e-07
-0.000448851
6.87599e-05
1.1367e-05
-0.000448851
0.000109909
-2.48648e-06
3.61412e-06
-1.50575e-06
2.40467e-06
3.61412e-06
-5.9094e-06
2.40467e-06
-4.09024e-06
-5.9094e-06
1.0529e-05
-4.09024e-06
7.47178e-06
1.0529e-05
-2.04715e-05
7.47178e-06
-1.4103e-05
-2.04715e-05
3.78759e-05
-1.4103e-05
2.57714e-05
3.78759e-05
-5.95709e-05
2.57714e-05
-3.28715e-05
-5.95709e-05
-3.56445e-07
-3.28715e-05
-7.79003e-05
-3.56458e-07
-0.000448851
-7.79003e-05
-0.000204818
-0.000448851
0.000109909
-0.000204818
0.000481339
-1.4103e-05
2.57714e-05
1.58932e-05
-3.14297e-05
2.57714e-05
-3.28715e-05
-3.14297e-05
2.24884e-05
-3.28715e-05
-7.79003e-05
2.24884e-05
0.000106097
2.24884e-05
0.000106097
2.69436e-05
3.47399e-05
0.000137824
-1.66967e-06
1.1367e-05
-0.000201549
-1.66967e-06
0.000112848
-0.000201549
-4.1857e-05
0.000112848
1.72407e-05
-4.18571e-05
-8.37826e-06
1.1367e-05
-0.000201549
6.55536e-06
0.000328127
6.55536e-06
0.000328127
0.000109909
0.00011795
-0.000201549
-4.1857e-05
0.000328127
-0.000593166
0.000328127
-0.000593166
0.00011795
-0.000542175
-4.18571e-05
-8.37827e-06
-0.000593166
-2.8827e-05
-2.8827e-05
0.000146371
1.04295e-05
-0.000219368
-0.000593166
-2.8827e-05
-0.000542175
1.04295e-05
0.0150636
0.0963748
0.0115594
0.068402
0.0963748
0.50691
0.068402
0.411231
-0.00341295
0.0150636
-0.0046881
0.0115594
0.000109909
0.00011795
0.000312362
-0.00148992
0.000312362
-0.00148992
0.000481339
-0.00145959
0.00011795
-0.000542175
-0.00148992
0.00067221
-0.00148992
0.00067221
-0.00145959
0.00279928
-0.000542175
1.04295e-05
0.00067221
-0.000885218
1.04295e-05
-0.000219368
-0.000885218
0.00238492
-0.000885218
0.00238492
-0.0060836
0.010408
0.00067221
-0.000885217
0.00279928