# vtk DataFile Version 2.0
Hex test
ASCII
DATASET UNSTRUCTURED_GRID
POINTS 8548 float
10 46 0
10 48 0
12 46 0
12 48 0
10 48 0
10 50 0
12 48 0
12 50 0
10 50 0
10 52 0
12 50 0
12 52 0
10 52 0
10 54 0
12 52 0
12 54 0
10 54 0
10 56.1667 0
12 54 0
12 56.1667 0
10 56.1667 0
10 60 0
12 56.1667 0
12 60 0
12 46 0
12 48 0
14 46 0
14 48 0
12 48 0
12 50 0
14 48 0
14 50 0
12 50 0
12 52 0
14 50 0
14 52 0
12 52 0
12 54 0
14 52 0
14 54 0
12 54 0
12 56.1667 0
14 54 0
14 56.1667 0
12 56.1667 0
12 60 0
14 56.1667 0
14 60 0
14 46 0
14 48 0
16 46 0
16 48 0
14 48 0
14 50 0
16 48 0
16 50 0
14 50 0
14 52 0
16 50 0
16 52 0
14 52 0
14 54 0
16 52 0
16 54 0
14 54 0
14 56.1667 0
16 54 0
16 56.1667 0
14 56.1667 0
14 60 0
16 56.1667 0
16 60 0
16 46 0
16 48 0
18 46 0
18 48 0
16 48 0
16 50 0
18 48 0
18 50 0
16 50 0
16 52 0
18 50 0
18 52 0
16 52 0
16 54 0
18 52 0
18 54 0
16 54 0
16 56.1667 0
18 54 0
18 56.1667 0
16 56.1667 0
16 60 0
18 56.1667 0
18 60 0
18 46 0
18 48 0
20 46 0
20 48 0
18 48 0
18 50 0
20 48 0
20 50 0
18 50 0
18 52 0
20 50 0
20 52 0
18 52 0
18 54 0
20 52 0
20 54 0
18 54 0
18 56.1667 0
20 54 0
20 56.1667 0
18 56.1667 0
18 60 0
20 56.1667 0
20 60 0
20 46 0
20 48 0
22 46 0
22 48 0
20 48 0
20 50 0
22 48 0
22 50 0
20 50 0
20 52 0
22 50 0
22 52 0
20 52 0
20 54 0
22 52 0
22 54 0
20 54 0
20 56.1667 0
22 54 0
22 56.1667 0
20 56.1667 0
20 60 0
22 56.1667 0
22 60 0
22 46 0
22 48 0
24 46 0
24 48 0
22 48 0
22 50 0
24 48 0
24 50 0
22 50 0
22 52 0
24 50 0
24 52 0
22 52 0
22 54 0
24 52 0
24 54 0
22 54 0
22 56.1667 0
24 54 0
24 56.1667 0
22 56.1667 0
22 60 0
24 56.1667 0
24 60 0
24 52 0
24 54 0
26 52 0
26 54 0
24 54 0
24 56.1667 0
26 54 0
26 56.1667 0
24 56.1667 0
24 60 0
26 56.1667 0
26 60 0
22 44 0
22 45 0
23 44 0
23 45 0
23 44 0
23 45 0
24 44 0
24 45 0
22 45 0
22 46 0
23 45 0
23 46 0
23 45 0
23 46 0
24 45 0
24 46 0
22 42 0
22 43 0
23 42 0
23 43 0
22 43 0
22 44 0
23 43 0
23 44 0
23 43 0
23 44 0
24 43 0
24 44 0
22 40 0
22 41 0
23 40 0
23 41 0
22 41 0
22 42 0
23 41 0
23 42 0
23 40 0
23 41 0
24 40 0
24 41 0
20 44 0
20 45 0
21 44 0
21 45 0
21 44 0
21 45 0
22 44 0
22 45 0
20 45 0
20 46 0
21 45 0
21 46 0
21 45 0
21 46 0
22 45 0
22 46 0
20 42 0
20 43 0
21 42 0
21 43 0
20 43 0
20 44 0
21 43 0
21 44 0
21 43 0
21 44 0
22 43 0
22 44 0
21 42 0
21 43 0
22 42 0
22 43 0
20 40 0
20 41 0
21 40 0
21 41 0
20 41 0
20 42 0
21 41 0
21 42 0
21 41 0
21 42 0
22 41 0
22 42 0
21 40 0
21 41 0
22 40 0
22 41 0
21 39 0
21 40 0
22 39 0
22 40 0
18 44 0
18 45 0
19 44 0
19 45 0
19 44 0
19 45 0
20 44 0
20 45 0
18 45 0
18 46 0
19 45 0
19 46 0
19 45 0
19 46 0
20 45 0
20 46 0
18 42 0
18 43 0
19 42 0
19 43 0
18 43 0
18 44 0
19 43 0
19 44 0
19 43 0
19 44 0
20 43 0
20 44 0
19 42 0
19 43 0
20 42 0
20 43 0
18 40 0
18 41 0
19 40 0
19 41 0
18 41 0
18 42 0
19 41 0
19 42 0
19 41 0
19 42 0
20 41 0
20 42 0
19 40 0
19 41 0
20 40 0
20 41 0
16 44 0
16 45 0
17 44 0
17 45 0
17 44 0
17 45 0
18 44 0
18 45 0
16 45 0
16 46 0
17 45 0
17 46 0
17 45 0
17 46 0
18 45 0
18 46 0
16 42 0
16 43 0
17 42 0
17 43 0
16 43 0
16 44 0
17 43 0
17 44 0
17 43 0
17 44 0
18 43 0
18 44 0
17 42 0
17 43 0
18 42 0
18 43 0
16 40 0
16 41 0
17 40 0
17 41 0
16 41 0
16 42 0
17 41 0
17 42 0
17 41 0
17 42 0
18 41 0
18 42 0
17 40 0
17 41 0
18 40 0
18 41 0
14 44 0
14 45 0
15 44 0
15 45 0
15 44 0
15 45 0
16 44 0
16 45 0
14 45 0
14 46 0
15 45 0
15 46 0
15 45 0
15 46 0
16 45 0
16 46 0
14 42 0
14 43 0
15 42 0
15 43 0
14 43 0
14 44 0
15 43 0
15 44 0
15 43 0
15 44 0
16 43 0
16 44 0
15 42 0
15 43 0
16 42 0
16 43 0
14 40 0
14 41 0
15 40 0
15 41 0
14 41 0
14 42 0
15 41 0
15 42 0
15 41 0
15 42 0
16 41 0
16 42 0
15 40 0
15 41 0
16 40 0
16 41 0
14 39 0
14 40 0
15 39 0
15 40 0
12 44 0
12 45 0
13 44 0
13 45 0
13 44 0
13 45 0
14 44 0
14 45 0
12 45 0
12 46 0
13 45 0
13 46 0
13 45 0
13 46 0
14 45 0
14 46 0
12 42 0
12 43 0
13 42 0
13 43 0
12 43 0
12 44 0
13 43 0
13 44 0
13 43 0
13 44 0
14 43 0
14 44 0
13 42 0
13 43 0
14 42 0
14 43 0
12 40 0
12 41 0
13 40 0
13 41 0
12 41 0
12 42 0
13 41 0
13 42 0
13 41 0
13 42 0
14 41 0
14 42 0
13 40 0
13 41 0
14 40 0
14 41 0
12 39 0
12 40 0
13 39 0
13 40 0
10 44 0
10 45 0
11 44 0
11 45 0
11 44 0
11 45 0
12 44 0
12 45 0
10 45 0
10 46 0
11 45 0
11 46 0
11 45 0
11 46 0
12 45 0
12 46 0
10 43 0
10 44 0
11 43 0
11 44 0
11 43 0
11 44 0
12 43 0
12 44 0
11 42 0
11 43 0
12 42 0
12 43 0
11 41 0
11 42 0
12 41 0
12 42 0
11 40 0
11 41 0
12 40 0
12 41 0
10 39 0
10 40 0
11 39 0
11 40 0
11 39 0
11 40 0
12 39 0
12 40 0
-12 38 0
-12 40 0
-8.16667 38 0
-8.16667 40 0
-12 40 0
-12 42 0
-8.16667 40 0
-8.16667 42 0
-12 42 0
-12 44 0
-8.16667 42 0
-8.16667 44 0
-12 44 0
-12 46 0
-8.16667 44 0
-8.16667 46 0
-12 46 0
-12 48 0
-8.16667 46 0
-8.16667 48 0
-12 48 0
-12 50 0
-8.16667 48 0
-8.16667 50 0
-12 50 0
-12 52 0
-8.16667 50 0
-8.16667 52 0
-12 52 0
-12 54 0
-8.16667 52 0
-8.16667 54 0
-12 54 0
-12 56.1667 0
-8.16667 54 0
-8.16667 56.1667 0
-12 56.1667 0
-12 60 0
-8.16667 56.1667 0
-8.16667 60 0
-8.16667 38 0
-8.16667 40 0
-6 38 0
-6 40 0
-8.16667 40 0
-8.16667 42 0
-6 40 0
-6 42 0
-8.16667 42 0
-8.16667 44 0
-6 42 0
-6 44 0
-8.16667 44 0
-8.16667 46 0
-6 44 0
-6 46 0
-8.16667 46 0
-8.16667 48 0
-6 46 0
-6 48 0
-8.16667 48 0
-8.16667 50 0
-6 48 0
-6 50 0
-8.16667 50 0
-8.16667 52 0
-6 50 0
-6 52 0
-8.16667 52 0
-8.16667 54 0
-6 52 0
-6 54 0
-8.16667 54 0
-8.16667 56.1667 0
-6 54 0
-6 56.1667 0
-8.16667 56.1667 0
-8.16667 60 0
-6 56.1667 0
-6 60 0
-6 38 0
-6 40 0
-4 38 0
-4 40 0
-6 40 0
-6 42 0
-4 40 0
-4 42 0
-6 42 0
-6 44 0
-4 42 0
-4 44 0
-6 44 0
-6 46 0
-4 44 0
-4 46 0
-6 46 0
-6 48 0
-4 46 0
-4 48 0
-6 48 0
-6 50 0
-4 48 0
-4 50 0
-6 50 0
-6 52 0
-4 50 0
-4 52 0
-6 52 0
-6 54 0
-4 52 0
-4 54 0
-6 54 0
-6 56.1667 0
-4 54 0
-4 56.1667 0
-6 56.1667 0
-6 60 0
-4 56.1667 0
-4 60 0
-4 38 0
-4 40 0
-2 38 0
-2 40 0
-4 40 0
-4 42 0
-2 40 0
-2 42 0
-4 42 0
-4 44 0
-2 42 0
-2 44 0
-4 44 0
-4 46 0
-2 44 0
-2 46 0
-4 46 0
-4 48 0
-2 46 0
-2 48 0
-4 48 0
-4 50 0
-2 48 0
-2 50 0
-4 50 0
-4 52 0
-2 50 0
-2 52 0
-4 52 0
-4 54 0
-2 52 0
-2 54 0
-4 54 0
-4 56.1667 0
-2 54 0
-2 56.1667 0
-4 56.1667 0
-4 60 0
-2 56.1667 0
-2 60 0
-2 38 0
-2 40 0
-2.77556e-17 38 0
-5.55112e-17 40 0
-2 40 0
-2 42 0
-2.77556e-17 40 0
-5.55112e-17 42 0
-2 42 0
-2 44 0
-2.77556e-17 42 0
-5.55112e-17 44 0
-2 44 0
-2 46 0
-2.77556e-17 44 0
-5.55112e-17 46 0
-2 46 0
-2 48 0
-2.77556e-17 46 0
-5.55112e-17 48 0
-2 48 0
-2 50 0
-2.77556e-17 48 0
-5.55112e-17 50 0
-2 50 0
-2 52 0
-2.77556e-17 50 0
-5.55112e-17 52 0
-2 52 0
-2 54 0
-2.77556e-17 52 0
-5.55112e-17 54 0
-2 54 0
-2 56.1667 0
-2.77556e-17 54 0
-1.38778e-17 56.1667 0
-2 56.1667 0
-2 60 0
2.77556e-17 56.1667 0
0 60 0
2.77556e-17 38 0
2.42861e-17 39 0
2 38 0
2 39 0
2.42861e-17 39 0
2.77556e-17 40 0
2 39 0
2 40 0
2.77556e-17 40 0
2.42861e-17 41 0
2 40 0
2 41 0
2.42861e-17 41 0
2.77556e-17 42 0
2 41 0
2 42 0
2.77556e-17 42 0
2.77556e-17 44 0
2 42 0
2 44 0
2.77556e-17 44 0
2.77556e-17 46 0
2 44 0
2 46 0
2.77556e-17 46 0
2.77556e-17 48 0
2 46 0
2 48 0
2.77556e-17 48 0
2.77556e-17 50 0
2 48 0
2 50 0
2.77556e-17 50 0
2.77556e-17 52 0
2 50 0
2 52 0
2.77556e-17 52 0
2.77556e-17 54 0
2 52 0
2 54 0
2.77556e-17 54 0
0 56.1667 0
2 54 0
2 56.1667 0
-1.38778e-17 56.1667 0
0 60 0
2 56.1667 0
2 60 0
2 38 0
2 39 0
4 38 0
4 39 0
2 39 0
2 40 0
4 39 0
4 40 0
2 40 0
2 41 0
4 40 0
4 41 0
2 41 0
2 42 0
4 41 0
4 42 0
2 42 0
2 43 0
4 42 0
4 43 0
2 43 0
2 44 0
4 43 0
4 44 0
2 44 0
2 46 0
4 44 0
4 46 0
2 46 0
2 48 0
4 46 0
4 48 0
2 48 0
2 50 0
4 48 0
4 50 0
2 50 0
2 52 0
4 50 0
4 52 0
2 52 0
2 54 0
4 52 0
4 54 0
2 54 0
2 56.1667 0
4 54 0
4 56.1667 0
2 56.1667 0
2 60 0
4 56.1667 0
4 60 0
4 42 0
4 43 0
6 42 0
6 43 0
4 43 0
4 44 0
6 43 0
6 44 0
4 44 0
4 45 0
6 44 0
6 45 0
4 45 0
4 46 0
6 45 0
6 46 0
4 46 0
4 48 0
6 46 0
6 48 0
4 48 0
4 50 0
6 48 0
6 50 0
4 50 0
4 52 0
6 50 0
6 52 0
4 52 0
4 54 0
6 52 0
6 54 0
4 54 0
4 56.1667 0
6 54 0
6 56.1667 0
4 56.1667 0
4 60 0
6 56.1667 0
6 60 0
6 44 0
6 45 0
8 44 0
8 45 0
6 45 0
6 46 0
8 45 0
8 46 0
6 46 0
6 48 0
8 46 0
8 48 0
6 48 0
6 50 0
8 48 0
8 50 0
6 50 0
6 52 0
8 50 0
8 52 0
6 52 0
6 54 0
8 52 0
8 54 0
6 54 0
6 56.1667 0
8 54 0
8 56.1667 0
6 56.1667 0
6 60 0
8 56.1667 0
8 60 0
8 46 0
8 48 0
10 46 0
10 48 0
8 48 0
8 50 0
10 48 0
10 50 0
8 50 0
8 52 0
10 50 0
10 52 0
8 52 0
8 54 0
10 52 0
10 54 0
8 54 0
8 56.1667 0
10 54 0
10 56.1667 0
8 56.1667 0
8 60 0
10 56.1667 0
10 60 0
4 38 0
4 39 0
6 38 0
6 39 0
4 39 0
4 40 0
6 39 0
6 40 0
4 40 0
4 41 0
6 40 0
6 41 0
4 41 0
4 42 0
6 41 0
6 42 0
6 37 0
6 38 0
7 37 0
7 38 0
7 37 0
7 38 0
8 37 0
8 38 0
6 38 0
6 39 0
7 38 0
7 39 0
6 39 0
6 40 0
7 39 0
7 40 0
7 39 0
7 40 0
8 39 0
8 40 0
7 38 0
7 39 0
8 38 0
8 39 0
6 40 0
6 41 0
7 40 0
7 41 0
7 40 0
7 41 0
8 40 0
8 41 0
6 41 0
6 42 0
7 41 0
7 42 0
7 41 0
7 42 0
8 41 0
8 42 0
6 42 0
6 43 0
8 42 0
8 43 0
6 43 0
6 44 0
8 43 0
8 44 0
10 42 0
10 43 0
11 42 0
11 43 0
10 40 0
10 41 0
11 40 0
11 41 0
10 41 0
10 42 0
11 41 0
11 42 0
10 38 0
10 39 0
11 38 0
11 39 0
8 37 0
8 38 0
9 37 0
9 38 0
9 37 0
9 38 0
10 37 0
10 38 0
8 38 0
8 39 0
9 38 0
9 39 0
8 39 0
8 40 0
9 39 0
9 40 0
9 39 0
9 40 0
10 39 0
10 40 0
9 38 0
9 39 0
10 38 0
10 39 0
8 40 0
8 41 0
9 40 0
9 41 0
8 41 0
8 42 0
9 41 0
9 42 0
9 41 0
9 42 0
10 41 0
10 42 0
9 40 0
9 41 0
10 40 0
10 41 0
8 42 0
8 43 0
9 42 0
9 43 0
9 42 0
9 43 0
10 42 0
10 43 0
8 43 0
8 44 0
9 43 0
9 44 0
9 43 0
9 44 0
10 43 0
10 44 0
8 44 0
8 45 0
10 44 0
10 45 0
8 45 0
8 46 0
10 45 0
10 46 0
-12 24 0
-12 26 0
-8.16667 24 0
-8.16667 26 0
-12 26 0
-12 28 0
-8.16667 26 0
-8.16667 28 0
-12 28 0
-12 30 0
-8.16667 28 0
-8.16667 30 0
-12 30 0
-12 32 0
-8.16667 30 0
-8.16667 32 0
-12 32 0
-12 34 0
-8.16667 32 0
-8.16667 34 0
-12 34 0
-12 36 0
-8.16667 34 0
-8.16667 36 0
-12 36 0
-12 38 0
-8.16667 36 0
-8.16667 38 0
-8.16667 24 0
-8.16667 26 0
-6 24 0
-6 26 0
-8.16667 26 0
-8.16667 28 0
-6 26 0
-6 28 0
-8.16667 28 0
-8.16667 30 0
-6 28 0
-6 30 0
-8.16667 30 0
-8.16667 32 0
-6 30 0
-6 32 0
-8.16667 32 0
-8.16667 34 0
-6 32 0
-6 34 0
-8.16667 34 0
-8.16667 36 0
-6 34 0
-6 36 0
-8.16667 36 0
-8.16667 38 0
-6 36 0
-6 38 0
-6 24 0
-6 26 0
-4 24 0
-4 26 0
-6 26 0
-6 28 0
-4 26 0
-4 28 0
-6 28 0
-6 30 0
-4 28 0
-4 30 0
[...]
POINT_DATA 8548
SCALARS phi float 1
LOOKUP_TABLE default
0.000186364
2.76222e-05
-0.000475704
-0.000130666
2.76222e-05
2.58361e-06
-0.000130666
-5.04095e-05
2.58361e-06
-2.24863e-06
-5.04095e-05
1.69409e-05
-2.24863e-06
6.35535e-07
1.69409e-05
-5.74041e-06
6.35535e-07
5.38813e-07
-5.74041e-06
-2.44854e-06
5.38813e-07
4.66538e-08
-2.44854e-06
8.04863e-07
-0.000475704
-0.000130666
0.000523749
0.000149379
-0.000130666
-5.04095e-05
0.000149379
9.67393e-05
-5.04095e-05
1.69409e-05
9.67393e-05
-3.3865e-05
1.69409e-05
-5.74041e-06
-3.3865e-05
1.10628e-05
-5.74041e-06
-2.44854e-06
1.10628e-05
5.98721e-06
-2.44854e-06
8.04863e-07
5.98721e-06
-9.4006e-07
0.000523749
0.000149379
-0.000948241
-0.000235666
0.000149379
9.67393e-05
-0.000235666
-0.000147261
9.67393e-05
-3.3865e-05
-0.000147261
5.45149e-05
-3.3865e-05
1.10628e-05
5.45149e-05
-1.86637e-05
1.10628e-05
5.98721e-06
-1.86637e-05
-6.49013e-06
5.98721e-06
-9.4006e-07
-6.49013e-06
3.4223e-06
-0.000948241
-0.000235666
0.00424679
0.00175935
-0.000235666
-0.000147261
0.00175935
-5.02331e-05
-0.000147261
5.45149e-05
-5.02331e-05
9.90822e-05
5.45149e-05
-1.86637e-05
9.90821e-05
-1.50214e-05
-1.86637e-05
-6.49013e-06
-1.50214e-05
-3.59048e-05
-6.49013e-06
3.4223e-06
-3.59048e-05
-9.75219e-06
0.00424679
0.00175935
0.00584535
0.00209657
0.00175935
-5.02331e-05
0.00209657
0.000127613
-5.02331e-05
9.90822e-05
0.000127613
3.58603e-05
9.90822e-05
-1.50214e-05
3.58603e-05
-1.22632e-05
-1.50214e-05
-3.59048e-05
-1.22632e-05
-1.63113e-06
-3.59048e-05
-9.75219e-06
-1.63113e-06
3.68184e-06
0.00584535
0.00209657
0.000346245
0.000196698
0.00209657
0.000127613
0.000196698
-0.000112965
0.000127613
3.58603e-05
-0.000112965
5.3098e-05
3.58603e-05
-1.22632e-05
5.3098e-05
-1.38174e-05
-1.22632e-05
-1.63113e-06
-1.38174e-05
-1.18138e-05
-1.63113e-06
3.68184e-06
-1.18138e-05
-2.57392e-07
0.000346245
0.000196698
0.0039123
0.00148636
0.000196698
-0.000112965
0.00148636
-1.51622e-05
-0.000112965
5.3098e-05
-1.51622e-05
6.96667e-05
5.3098e-05
-1.38174e-05
6.96667e-05
-2.10444e-05
-1.38174e-05
-1.18138e-05
-2.10444e-05
-9.73832e-06
-1.18138e-05
-2.57392e-07
-9.73832e-06
3.22157e-06
6.96667e-05
-2.10444e-05
3.39621e-05
-8.38648e-06
-2.10444e-05
-9.73832e-06
-8.38648e-06
-7.566e-06
-9.73832e-06
3.22157e-06
-7.566e-06
-3.08233e-07
-0.000994019
0.000403128
-0.00131824
0.0014458
-0.00131824
0.0014458
-0.00206714
0.00302084
0.000403128
0.000346245
0.0014458
0.00135803
0.0014458
0.00135803
0.00302084
0.0039123
-0.00471355
0.0022421
-0.00517874
0.00257583
0.0022421
-0.000994019
0.00257583
-0.00131824
0.00257583
-0.00131824
0.00430304
-0.00206714
0.016
0.0086092
0.0139818
0.0098937
0.0086092
-0.00471355
0.0098937
-0.00517874
0.0139818
0.0098937
0.0303807
0.0161883
-0.00194194
0.00412311
-0.00144993
0.00191007
-0.00144993
0.00191007
-0.000994019
0.000403128
0.00412311
0.00584535
0.00191007
0.00280335
0.00191007
0.00280335
0.000403128
0.000346245
-0.00923357
0.00402102
-0.00611621
0.00302195
0.00402102
-0.00194194
0.00302195
-0.00144993
0.00302195
-0.00144993
0.0022421
-0.000994019
-0.00611621
0.00302195
-0.00471355
0.0022421
0.104656
0.0176411
0.0231397
0.0118101
0.0176411
-0.00923357
0.0118101
-0.00611621
0.0118101
-0.00611621
0.0086092
-0.00471355
0.0231397
0.0118101
0.016
0.00860919
0.439964
0.0231397
0.379877
0.016
-0.00267955
0.00301798
-0.00282118
0.00414517
-0.00282118
0.00414517
-0.00194194
0.00412311
0.00301798
0.00424679
0.00414517
0.00624926
0.00414517
0.00624926
0.00412311
0.00584535
-0.0171671
0.00642197
-0.0176083
0.00678193
0.00642197
-0.00267955
0.00678194
-0.00282118
0.00678194
-0.00282118
0.00402102
-0.00194194
-0.0176083
0.00678194
-0.00923357
0.00402102
0.134798
0.0195733
0.118939
0.0229286
0.0195733
-0.0171671
0.0229286
-0.0176083
0.0229286
-0.0176083
0.0176411
-0.00923358
0.118939
0.0229286
0.104656
0.0176411
-0.0012788
-0.000648629
-0.0010217
0.0017047
-0.0010217
0.0017047
-0.00267955
0.00301798
-0.000648629
-0.000948241
0.0017047
0.00113923
0.0017047
0.00113923
0.00301798
0.00424679
-0.00665316
0.00301599
-0.00397835
0.00169279
0.00301599
-0.0012788
0.00169279
-0.0010217
0.00169279
-0.0010217
0.00642197
-0.00267955
-0.00397835
0.00169279
-0.0171671
0.00642197
0.0379054
0.00974324
0.132011
0.00988842
0.00974324
-0.00665316
0.00988842
-0.00397835
0.00988842
-0.00397835
0.0195733
-0.0171671
0.132011
0.00988842
0.134798
0.0195733
0.000326326
0.000149862
0.000230804
-0.000211132
0.000230804
-0.000211132
-0.0012788
-0.000648629
0.000149862
0.000523749
-0.000211132
-0.000526741
-0.000211132
-0.000526741
-0.000648629
-0.000948241
0.00163346
-0.00122289
0.00211155
-0.0007747
-0.00122289
0.000326326
-0.0007747
0.000230805
-0.0007747
0.000230805
0.00301599
-0.0012788
0.00211155
-0.0007747
-0.00665315
0.00301599
0.00656363
-0.00333939
0.0085797
-0.000376704
-0.00333939
0.00163347
-0.000376705
0.00211155
-0.000376705
0.00211155
0.00974324
-0.00665315
0.0085797
-0.000376704
0.0379054
0.00974324
0.0310156
0.00656363
0.0876585
0.0085797
-0.00023347
-0.000240448
-5.96093e-05
2.17159e-06
-5.96093e-05
2.17159e-06
0.000326326
0.000149862
-0.000240448
-0.000475704
2.17159e-06
0.0002187
2.17159e-06
0.0002187
0.000149862
0.000523749
-0.000431467
0.000593114
-0.000149892
-0.000895101
0.000593113
-0.00023347
-0.000895101
-5.96093e-05
-0.000895101
-5.96093e-05
-0.00122289
0.000326326
-0.000149892
-0.000895101
0.00163347
-0.00122289
-0.000933641
0.000779837
0.000143729
0.000145301
0.000779837
-0.000431467
0.000145301
-0.000149892
0.000145301
-0.000149892
-0.00333939
0.00163347
0.000143729
0.000145301
0.00656363
-0.00333939
0.00479732
-0.000933641
0.0120491
0.000143729
8.43761e-05
0.000148466
-0.000147581
-0.000124553
-0.000147581
-0.000124553
-0.00023347
-0.000240448
0.000148466
0.000186363
-0.000124553
-0.000305161
-0.000124553
-0.000305161
-0.000240448
-0.000475704
0.000327623
8.43761e-05
0.000607972
-0.000147581
0.000607972
-0.000147581
0.000593114
-0.00023347
-0.000549836
0.000607972
-0.000431467
0.000593114
0.00155883
-0.000549836
0.000779837
-0.000431467
-0.00298751
0.00155883
-0.000933641
0.000779837
5.18781e-05
0.000144801
0.00474963
-0.00298751
0.00474963
-0.00298751
0.00479732
-0.000933641
1.12223e-06
-1.25562e-06
-2.19151e-06
4.3615e-07
-1.25562e-06
5.72061e-07
4.3615e-07
-5.53134e-07
5.72061e-07
-2.86629e-07
-5.53134e-07
4.49466e-07
-2.86629e-07
3.75849e-07
4.49466e-07
3.05308e-07
3.75849e-07
-1.30258e-07
3.05308e-07
-6.64471e-08
-1.30258e-07
1.26839e-07
-6.64471e-08
1.12135e-07
1.26839e-07
-5.8752e-08
1.12135e-07
-3.96186e-08
-5.8752e-08
1.88778e-08
-3.96186e-08
1.53043e-08
1.88778e-08
6.42066e-09
1.53043e-08
1.96842e-09
6.42066e-09
-3.75973e-09
1.96842e-09
-4.23367e-09
-2.19151e-06
4.3615e-07
-6.1274e-06
4.27313e-06
4.3615e-07
-5.53134e-07
4.27313e-06
-2.39248e-06
-5.53134e-07
4.49466e-07
-2.39248e-06
1.42007e-06
4.49466e-07
3.05308e-07
1.42007e-06
-6.91452e-07
3.05308e-07
-6.64471e-08
-6.91452e-07
2.90256e-07
-6.64471e-08
1.12135e-07
2.90256e-07
-2.26082e-07
1.12135e-07
-3.96186e-08
-2.26082e-07
1.19057e-07
-3.96186e-08
1.53043e-08
1.19057e-07
-3.42132e-08
1.53043e-08
1.96842e-09
-3.42132e-08
-1.64472e-08
1.96842e-09
-4.23367e-09
-1.64472e-08
5.194e-09
-6.1274e-06
4.27313e-06
1.69805e-05
-1.06402e-05
4.27313e-06
-2.39248e-06
-1.06402e-05
6.30202e-06
-2.39248e-06
1.42007e-06
6.30201e-06
-3.85021e-06
1.42007e-06
-6.91452e-07
-3.85021e-06
1.30097e-06
-6.91452e-07
2.90256e-07
1.30097e-06
-6.21203e-07
2.90256e-07
-2.26082e-07
-6.21203e-07
4.21916e-07
-2.26082e-07
1.19057e-07
4.21916e-07
-2.42908e-07
1.19057e-07
-3.42132e-08
-2.42908e-07
6.5681e-08
-3.42132e-08
-1.64472e-08
6.56809e-08
3.75371e-08
-1.64472e-08
5.194e-09
3.75371e-08
-7.76374e-09
1.69804e-05
-1.06402e-05
-3.97424e-05
2.42213e-05
-1.06402e-05
6.30202e-06
2.42213e-05
-1.40988e-05
6.30201e-06
-3.85021e-06
-1.40988e-05
9.48691e-06
-3.85021e-06
1.30097e-06
9.48691e-06
-3.03999e-06
1.30097e-06
-6.21203e-07
-3.03999e-06
1.32581e-06
-6.21203e-07
4.21916e-07
1.32581e-06
-6.18011e-07
4.21916e-07
-2.42908e-07
-6.18011e-07
4.6138e-07
-2.42908e-07
6.56809e-08
4.6138e-07
-1.22249e-07
6.56809e-08
3.75371e-08
-1.22249e-07
-7.29761e-08
3.75371e-08
-7.76374e-09
-7.29761e-08
1.30605e-08
-3.97424e-05
2.42213e-05
3.74817e-05
-2.54636e-05
2.42213e-05
-1.40988e-05
-2.54636e-05
1.50186e-05
-1.40988e-05
9.48691e-06
1.50186e-05
-8.10771e-06
9.48691e-06
-3.03999e-06
-8.10771e-06
3.72977e-06
-3.03999e-06
1.32581e-06
3.72977e-06
-1.81512e-06
1.32581e-06
-6.18011e-07
-1.81512e-06
1.64269e-06
-6.18011e-07
4.6138e-07
1.64269e-06
-7.9487e-07
4.6138e-07
-1.22249e-07
-7.9487e-07
2.2885e-07
-1.22249e-07
-7.29762e-08
2.2885e-07
1.13343e-07
-7.29761e-08
1.30605e-08
1.13343e-07
-3.29197e-08
3.74817e-05
2.64195e-05
-7.90136e-05
-8.2468e-05
2.64195e-05
-2.54636e-05
-8.2468e-05
6.91027e-05
-2.54636e-05
-1.56088e-05
6.91027e-05
4.6357e-05
-1.56088e-05
1.50186e-05
4.6357e-05
-4.62496e-05
1.50186e-05
-8.10771e-06
-4.62496e-05
2.97891e-05
-8.10771e-06
3.72977e-06
2.97891e-05
-1.4247e-05
3.72977e-06
-1.81512e-06
-1.4247e-05
7.4986e-06
-1.81512e-06
1.64269e-06
7.49859e-06
-5.82266e-06
1.64269e-06
-7.94871e-07
-5.82266e-06
2.94294e-06
-7.9487e-07
2.2885e-07
2.94294e-06
-8.42566e-07
2.2885e-07
1.13343e-07
-8.42566e-07
-4.42168e-07
1.13343e-07
-3.29197e-08
-4.42168e-07
1.08412e-07
-7.90136e-05
-8.2468e-05
0.00010246
8.98414e-05
-8.2468e-05
6.91027e-05
8.98414e-05
-4.94231e-05
6.91027e-05
4.6357e-05
-4.94231e-05
-3.78696e-05
4.6357e-05
-4.62496e-05
-3.78696e-05
1.50447e-05
-4.62496e-05
-2.68374e-05
1.50447e-05
3.51084e-05
-2.68374e-05
2.97891e-05
3.51084e-05
7.4523e-06
2.97891e-05
-1.4247e-05
7.4523e-06
-1.25496e-06
-1.4247e-05
7.49859e-06
-1.25495e-06
3.82929e-07
7.4986e-06
-5.82266e-06
3.82929e-07
1.26234e-06
-5.82266e-06
2.94294e-06
1.26234e-06
-3.54529e-07
2.94294e-06
-8.42567e-07
-3.54529e-07
1.22128e-07
-8.42567e-07
-4.42168e-07
1.22128e-07
2.01237e-08
-4.42168e-07
1.08412e-07
2.01237e-08
-3.41716e-08
1.50447e-05
3.51084e-05
-6.29162e-06
4.24772e-05
3.51084e-05
7.4523e-06
4.24772e-05
-1.89452e-05
7.4523e-06
-4.80462e-06
-1.89452e-05
-1.33947e-06
-4.80462e-06
-1.25495e-06
-1.33947e-06
2.9401e-06
-1.25495e-06
3.82929e-07
2.94009e-06
-1.35765e-05
3.8293e-07
1.26234e-06
-1.35765e-05
-8.21296e-06
1.26234e-06
-3.54529e-07
-8.21296e-06
1.15859e-06
-3.54529e-07
1.22128e-07
1.15859e-06
-4.58762e-07
1.22128e-07
2.01237e-08
-4.58762e-07
-1.4528e-07
2.01237e-08
-3.41716e-08
-1.4528e-07
8.33631e-08
-1.89452e-05
-1.33947e-06
8.80817e-05
0.000161062
-1.33947e-06
2.9401e-06
0.000161062
6.36449e-05
2.94009e-06
-1.35765e-05
6.36449e-05
7.30524e-06
-1.35765e-05
-8.21296e-06
7.30524e-06
1.2552e-06
-8.21296e-06
1.15859e-06
1.2552e-06
3.7961e-07
1.15859e-06
-4.58762e-07
3.79609e-07
-6.3202e-08
-4.58762e-07
-1.4528e-07
-6.32018e-08
-8.79288e-08
-1.4528e-07
8.33631e-08
-8.79288e-08
-1.25198e-08
6.36449e-05
7.30524e-06
0.000186364
2.76222e-05
7.30524e-06
1.2552e-06
2.76222e-05
2.58361e-06
1.2552e-06
3.79609e-07
2.58361e-06
-2.24863e-06
3.79609e-07
-6.3202e-08
-2.24863e-06
6.35534e-07
-6.32018e-08
-8.79288e-08
6.35535e-07
5.38813e-07
-8.79288e-08
-1.25198e-08
5.38813e-07
4.66538e-08
0.00010246
8.98414e-05
-8.16878e-05
-0.000128907
8.98414e-05
-4.94231e-05
-0.000128907
1.33146e-06
-4.94231e-05
-3.78696e-05
1.33146e-06
-8.87294e-05
-3.78696e-05
1.50447e-05
-8.87294e-05
-6.29162e-06
0.000142728
-8.16878e-05
0.000408152
0.000122035
0.000408152
0.000122035
-0.000480152
1.72287e-05
-8.16878e-05
-0.000128907
0.000122035
-0.000823901
-0.000128907
1.33146e-06
-0.000823901
3.8619e-06
-0.000823901
3.8619e-06
-0.000506899
0.000148035
0.000122035
-0.000823901
1.72286e-05
-0.000506899
1.33146e-06
-8.87293e-05
3.86189e-06
-6.8682e-05
3.86189e-06
-6.8682e-05
0.000148036
-2.85763e-07
-8.87294e-05
-6.29162e-06
-6.8682e-05
1.35344e-05
-6.8682e-05
1.35344e-05
-2.85758e-07
3.35789e-05
-6.29162e-06
4.24772e-05
3.35789e-05
2.68186e-06
4.24772e-05
-1.89452e-05
2.68186e-06
8.80817e-05
5.61454e-05
0.000327623
-0.000549836
0.000607972
0.000144801
-0.000165653
-0.00298751
0.00155883
-0.000165653
5.61454e-05
0.00155883
-0.000549836
0.000124079
5.18782e-05
-0.00600181
0.00474963
-0.000480152
1.72287e-05
0.000397404
0.000214129
0.000397404
0.000214129
0.000763231
0.000124079
1.72287e-05
-0.000506899
0.000214129
-0.000284588
-0.000506899
0.000148035
-0.000284588
-0.000117476
-0.000284588
-0.000117476
5.18783e-05
0.000144801
0.000214129
-0.000284588
0.000124079
5.18782e-05
0.000148035
-2.85758e-07
-0.000117476
-0.00024888
-2.85769e-07
3.35789e-05
-0.00024888
6.70183e-05
-0.00024888
6.70183e-05
-0.000165653
5.61454e-05
-0.000117476
-0.00024888
0.000144801
-0.000165653
3.35789e-05
2.68186e-06
6.70183e-05
1.88099e-05
6.70183e-05
1.88099e-05
5.61454e-05
0.000327623
2.68186e-06
8.80817e-05
1.88099e-05
0.000150459
1.88099e-05
0.000150459
0.000327623
8.43761e-05
8.80817e-05
0.000161062
8.43761e-05
0.000148466
0.000161062
6.36449e-05
0.000148466
0.000186364
3.26214e-05
4.3768e-05
7.94248e-06
3.36666e-05
4.3768e-05
1.76954e-05
3.36666e-05
-0.000121972
1.76954e-05
0.000104102
-0.000121972
6.63734e-05
0.000104102
-2.23981e-05
6.63734e-05
4.92186e-06
-2.23981e-05
-9.48824e-06
4.92185e-06
-2.91517e-05
-9.48824e-06
-8.80353e-06
-2.91517e-05
-5.28892e-06
-8.80353e-06
1.12223e-06
-5.28892e-06
-2.19151e-06
7.94248e-06
3.36666e-05
-8.67278e-05
-8.62114e-05
3.36666e-05
-0.000121972
-8.62115e-05
-0.000212388
-0.000121972
6.63734e-05
-0.000212388
-0.000220033
6.63734e-05
4.92185e-06
-0.000220033
7.22678e-05
4.92185e-06
-2.91517e-05
7.22678e-05
-1.14581e-05
-2.91517e-05
-5.28892e-06
-1.14581e-05
1.83368e-05
-5.28892e-06
-2.19151e-06
1.83368e-05
-6.1274e-06
-8.67278e-05
-8.62114e-05
0.000201753
0.000168063
-8.62114e-05
-0.000212388
0.000168063
0.000647263
-0.000212388
-0.000220033
0.000647263
0.00045067
-0.000220033
7.22678e-05
0.00045067
-0.000177985
7.22678e-05
-1.14581e-05
-0.000177985
5.84063e-05
-1.14581e-05
1.83368e-05
5.84063e-05
-3.7714e-05
1.83368e-05
-6.1274e-06
-3.7714e-05
1.69805e-05
0.000201753
0.000168063
-0.000264521
-0.000223546
0.000168063
0.000647263
-0.000223546
-0.00123281
0.000647263
0.00045067
-0.00123281
-0.00091639
0.00045067
-0.000177985
-0.00091639
0.000351773
-0.000177985
5.84063e-05
0.000351773
-0.000167451
5.84063e-05
-3.7714e-05
-0.000167451
8.17906e-05
-3.7714e-05
1.69805e-05
8.17906e-05
-3.97424e-05
-0.000264521
-0.000223546
0.000685644
0.000597962
-0.000223546
-0.00123281
0.000597962
0.00158933
-0.00123281
-0.00091639
0.00158933
0.00127233
-0.00091639
0.000351773
0.00127233
-0.000470276
0.000351773
-0.000167451
-0.000470276
6.26172e-05
-0.000167451
8.17906e-05
6.26172e-05
-0.000100778
8.17906e-05
-3.97424e-05
-0.000100778
3.74817e-05
0.000685645
0.000550178
-0.00145277
-0.000992548
0.000550178
0.000597962
-0.000992548
-0.00124882
0.000597962
0.00106478
-0.00124882
-0.0022071
0.00106478
0.00158933
-0.0022071
-0.00255112
0.00158933
0.00172393
-0.00255112
-0.00344898
0.00172393
0.00127233
-0.00344898
-0.00163707
0.00127233
0.000282706
-0.00163707
-0.000932407
0.000282706
-0.000470276
-0.000932407
0.000966209
-0.000470276
-0.000342369
0.000966209
0.000813694
-0.000342369
6.26172e-05
0.000813694
-0.000185797
6.26172e-05
6.11986e-05
-0.000185797
-4.68158e-05
6.11986e-05
-0.000100778
-4.68158e-05
0.00011486
-0.000100778
-6.62372e-05
0.00011486
0.000240263
-6.62372e-05
3.74817e-05
0.000240263
-7.90136e-05
-0.00145277
-0.000992548
0.00244878
0.00221983
-0.000992548
-0.00124882
0.00221983
0.00211107
-0.00124882
-0.0022071
0.00211107
0.00318136
-0.0022071
-0.00255112
0.00318136
0.00511644
-0.00255112
-0.00344898
0.00511644
0.00463461
-0.00344898
-0.00163707
0.00463461
0.00367906
-0.00163707
-0.000932407
0.00367906
0.000171546
-0.000932407
0.000966209
0.000171546
-0.00116033
0.000966209
0.000813694
-0.00116033
-0.00090004
0.000813694
-0.000185797
-0.00090004
-0.000163345
-0.000185798
-4.68158e-05
-0.000163345
0.000139323
-4.68158e-05
0.00011486
0.000139323
-0.000247206
0.00011486
0.000240263
-0.000247206
-1.15477e-05
0.000240263
-7.90136e-05
-1.15477e-05
0.00010246
0.00244878
0.00221983
0.000618558
0.000792486
0.00221983
0.00211107
0.000792486
0.000437425
0.00211107
0.00318136
0.000437425
0.000889336
0.00318136
0.00511644
0.000889338
0.000681224
0.00511644
0.00463461
0.000681224
-0.00206438
0.00463461
0.00367906
-0.00206438
0.000334029
0.00367906
0.000171546
0.000334028
0.000776948
0.000171546
-0.00116033
0.000776948
0.000111286
-0.00116033
-0.000900041
0.000111287
-0.000175249
-0.000900041
-0.000163345
-0.000175249
-9.50836e-05
-0.000163345
0.000139323
-9.50835e-05
5.51183e-05
0.000139323
-0.000247206
5.51183e-05
-0.000217178
-0.000247206
-1.15478e-05
-0.000217178
0.000142728
-1.15477e-05
0.00010246
0.000142728
-8.16878e-05
0.000612755
0.000618558
0.00745901
0.00758196
0.00745901
0.00758196
0.0212935
0.0192413
0.000618557
0.000792486
0.00758196
0.00738516
0.000792486
0.000437426
0.00738516
0.00661654
0.00738516
0.00661654
0.0181905
0.0180212
0.00758196
0.00738516
0.0192413
0.0181905
0.000437425
0.000889338
0.00661654
0.0105095
0.000889337
0.000681224
0.0105095
0.0244942
0.0105095
0.0244942
0.0226818
0.0880764
0.00661654
0.0105095
0.0180212
0.0226818
0.000681225
-0.00206438
0.0244942
0.0212187
-0.00206438
0.000334028
0.0212187
0.0239267
0.0212187
0.0239267
0.130881
0.04991
0.0244942
0.0212187
0.0880764
0.130881
0.000334026
0.000776947
0.0239267
0.000457595
0.000776948
0.000111286
0.000457595
-0.00445986
0.000457595
-0.00445986
0.0114969
0.0148667
0.0239267
0.000457595
0.04991
0.0114969
0.000111286
-0.000175249
-0.00445985
-0.00247913
-0.000175249
-9.50835e-05
-0.00247913
-0.000474864
-0.00247913
-0.000474865
0.00998941
0.00271292
-0.00445985
-0.00247912
0.0148667
0.00998941
-9.50835e-05
5.51182e-05
-0.000474865
0.000713592
5.51182e-05
-0.000217178
0.000713593
-0.00160035
0.000713592
-0.00160035
-0.00205695
0.00461043
-0.000474864
0.000713592
0.00271292
-0.00205695
-0.000217178
0.000142728
-0.00160035
0.000408152
-0.00160035
0.000408152
0.00461043
-0.000480152
0.993674
0.992808
1.00392
0.997129
0.929505
0.96166
0.987962
0.983264
0.96166
0.993674
0.983264
1.00392
0.987962
0.983264
0.999384
0.997761
0.945133
0.929505
0.98475
0.987962
0.0212935
0.0192413
0.429348
0.419176
0.0192413
0.0181905
0.419176
0.420415
0.0181905
0.0180212
0.420415
0.383224
0.420415
0.383224
0.945133
0.929505
0.419176
0.420415
0.944512
0.945133
0.0180212
0.0226818
0.383224
0.486726
0.0226818
0.0880764
0.486726
0.807483
0.486726
0.807483
0.96166
0.993674
0.383224
0.486726
0.929505
0.96166
0.0880764
0.130881
0.807483
0.818461
0.130881
0.04991
0.818461
0.612383
0.818461
0.612383
0.992808
0.975321
0.807483
0.818461
0.993674
0.992808
0.04991
0.0114969
0.612383
0.243009
0.0114969
0.0148667
0.243009
0.118533
0.243009
0.118533
0.881975
0.681122
0.612383
0.243009
0.975321
0.881975
0.0148667
0.00998941
0.118533
0.0426615
0.00998941
0.00271292
0.0426615
0.0243177
0.00271292
-0.00205695
0.0243177
0.00556395
-0.00205695
0.00461043
0.00556395
-0.00643016
0.00461043
-0.000480152
-0.00643017
0.000397404
0.997486
0.998341
1.00187
0.999513
0.998341
0.999565
0.999513
0.999629
0.999565
0.998648
0.999629
1.00241
0.998648
0.996971
1.00241
1.00402
0.996971
0.998268
1.00402
1.00367
0.998268
0.989445
1.00367
1.0071
1.00187
0.999513
0.999267
0.999589
0.999513
0.999629
0.999589
0.999939
0.999629
1.00241
0.999939
0.999986
1.00241
1.00402
0.999986
1.00008
1.00402
1.00367
1.00008
1.00045
1.00367
1.0071
1.00045
1.00005
1.0071
1.00529
1.00005
0.998111
1.00529
1.00452
0.998111
0.999344
0.999267
0.999939
1.00021
1.00022
0.99994
1.00008
1.00022
0.999702
1.00008
1.00005
0.999702
1.00245
1.00005
0.998111
1.00245
1.00252
0.998111
0.999344
1.00252
1.00378
0.999344
1.00775
1.00378
1.0059
1.00775
0.997003
1.0059
0.998929
1.00021
1.00022
0.999794
1.00035
1.00022
0.999702
1.00035
0.999771
0.999702
1.00245
0.999771
0.999757
1.00245
1.00378
0.999757
0.997433
1.00378
1.0059
0.997433
1.00842
1.0059
0.998929
1.00842
0.999101
0.999976
0.999794
1.00001
0.999575
0.999794
1.00035
0.999575
1.00031
1.00035
0.999771
1.00031
0.998264
0.999771
0.999757
0.998264
1.0026
0.999757
0.997433
1.0026
0.998875
0.997433
0.999101
0.998875
0.999065
0.998264
1.0026
1.00169
0.998062
1.0026
0.998875
0.998062
0.995954
0.998875
0.999065
0.995954