# vtk DataFile Version 2.0
Hex test
ASCII
DATASET UNSTRUCTURED_GRID
POINTS 7636 float
32 22 0
32 23 0
34 22 0
34 23 0
32 23 0
32 24 0
34 23 0
34 24 0
32 24 0
32 25 0
34 24 0
34 25 0
32 25 0
32 26 0
34 25 0
34 26 0
34 22 0
34 23 0
36 22 0
36 23 0
34 23 0
34 24 0
36 23 0
36 24 0
34 24 0
34 25 0
36 24 0
36 25 0
34 25 0
34 26 0
36 25 0
36 26 0
34 26 0
34 27 0
36 26 0
36 27 0
34 27 0
34 28 0
36 27 0
36 28 0
46 20 0
46 21 0
48 20 0
48 21 0
46 21 0
46 22 0
48 21 0
48 22 0
46 22 0
46 23 0
48 22 0
48 23 0
46 23 0
46 24 0
48 23 0
48 24 0
46 24 0
46 25 0
48 24 0
48 25 0
46 25 0
46 26 0
48 25 0
48 26 0
48 22 0
48 23 0
50 22 0
50 23 0
48 23 0
48 24 0
50 23 0
50 24 0
48 24 0
48 25 0
50 24 0
50 25 0
48 25 0
48 26 0
50 25 0
50 26 0
46 26 0
46 27 0
48 26 0
48 27 0
46 27 0
46 28 0
48 27 0
48 28 0
44 26 0
44 27 0
45 26 0
45 27 0
45 26 0
45 27 0
46 26 0
46 27 0
44 27 0
44 28 0
45 27 0
45 28 0
45 27 0
45 28 0
46 27 0
46 28 0
44 24 0
44 25 0
46 24 0
46 25 0
44 25 0
44 26 0
46 25 0
46 26 0
44 22 0
44 23 0
46 22 0
46 23 0
44 23 0
44 24 0
46 23 0
46 24 0
44 20 0
44 21 0
46 20 0
46 21 0
44 21 0
44 22 0
46 21 0
46 22 0
44 19 0
44 20 0
45 19 0
45 20 0
45 19 0
45 20 0
46 19 0
46 20 0
42 28 0
42 29 0
43 28 0
43 29 0
42 29 0
42 30 0
43 29 0
43 30 0
43 28 0
43 29 0
44 28 0
44 29 0
42 26 0
42 27 0
43 26 0
43 27 0
42 27 0
42 28 0
43 27 0
43 28 0
43 27 0
43 28 0
44 27 0
44 28 0
43 26 0
43 27 0
44 26 0
44 27 0
42 24 0
42 25 0
43 24 0
43 25 0
42 25 0
42 26 0
43 25 0
43 26 0
43 25 0
43 26 0
44 25 0
44 26 0
43 24 0
43 25 0
44 24 0
44 25 0
42 22 0
42 23 0
43 22 0
43 23 0
42 23 0
42 24 0
43 23 0
43 24 0
43 23 0
43 24 0
44 23 0
44 24 0
43 22 0
43 23 0
44 22 0
44 23 0
42 20 0
42 21 0
43 20 0
43 21 0
42 21 0
42 22 0
43 21 0
43 22 0
43 21 0
43 22 0
44 21 0
44 22 0
43 20 0
43 21 0
44 20 0
44 21 0
42 18 0
42 19 0
43 18 0
43 19 0
42 19 0
42 20 0
43 19 0
43 20 0
43 19 0
43 20 0
44 19 0
44 20 0
40 30 0
40 31 0
41 30 0
41 31 0
41 30 0
41 31 0
42 30 0
42 31 0
40 28 0
40 29 0
41 28 0
41 29 0
40 29 0
40 30 0
41 29 0
41 30 0
41 29 0
41 30 0
42 29 0
42 30 0
41 28 0
41 29 0
42 28 0
42 29 0
40 26 0
40 27 0
41 26 0
41 27 0
40 27 0
40 28 0
41 27 0
41 28 0
41 27 0
41 28 0
42 27 0
42 28 0
41 26 0
41 27 0
42 26 0
42 27 0
40 24 0
40 25 0
41 24 0
41 25 0
40 25 0
40 26 0
41 25 0
41 26 0
41 25 0
41 26 0
42 25 0
42 26 0
41 24 0
41 25 0
42 24 0
42 25 0
40 22 0
40 23 0
41 22 0
41 23 0
40 23 0
40 24 0
41 23 0
41 24 0
41 23 0
41 24 0
42 23 0
42 24 0
41 22 0
41 23 0
42 22 0
42 23 0
40 20 0
40 21 0
41 20 0
41 21 0
40 21 0
40 22 0
41 21 0
41 22 0
41 21 0
41 22 0
42 21 0
42 22 0
41 20 0
41 21 0
42 20 0
42 21 0
40 18 0
40 19 0
41 18 0
41 19 0
40 19 0
40 20 0
41 19 0
41 20 0
41 19 0
41 20 0
42 19 0
42 20 0
41 18 0
41 19 0
42 18 0
42 19 0
39 30 0
39 31 0
40 30 0
40 31 0
38 28 0
38 29 0
39 28 0
39 29 0
38 29 0
38 30 0
39 29 0
39 30 0
39 29 0
39 30 0
40 29 0
40 30 0
39 28 0
39 29 0
40 28 0
40 29 0
38 26 0
38 27 0
39 26 0
39 27 0
38 27 0
38 28 0
39 27 0
39 28 0
39 27 0
39 28 0
40 27 0
40 28 0
39 26 0
39 27 0
40 26 0
40 27 0
38 24 0
38 25 0
39 24 0
39 25 0
38 25 0
38 26 0
39 25 0
39 26 0
39 25 0
39 26 0
40 25 0
40 26 0
39 24 0
39 25 0
40 24 0
40 25 0
38 22 0
38 23 0
39 22 0
39 23 0
38 23 0
38 24 0
39 23 0
39 24 0
39 23 0
39 24 0
40 23 0
40 24 0
39 22 0
39 23 0
40 22 0
40 23 0
38 20 0
38 21 0
39 20 0
39 21 0
38 21 0
38 22 0
39 21 0
39 22 0
39 21 0
39 22 0
40 21 0
40 22 0
39 20 0
39 21 0
40 20 0
40 21 0
38 19 0
38 20 0
39 19 0
39 20 0
39 19 0
39 20 0
40 19 0
40 20 0
36 28 0
36 29 0
38 28 0
38 29 0
36 29 0
36 30 0
38 29 0
38 30 0
36 26 0
36 27 0
38 26 0
38 27 0
36 27 0
36 28 0
38 27 0
38 28 0
36 24 0
36 25 0
38 24 0
38 25 0
36 25 0
36 26 0
38 25 0
38 26 0
36 22 0
36 23 0
38 22 0
38 23 0
36 23 0
36 24 0
38 23 0
38 24 0
36 20 0
36 21 0
38 20 0
38 21 0
36 21 0
36 22 0
38 21 0
38 22 0
24 20 0
24 22 0
26 20 0
26 22 0
24 22 0
24 24 0
26 22 0
26 24 0
26 14 0
26 16 0
28 14 0
28 16 0
26 16 0
26 18 0
28 16 0
28 18 0
26 18 0
26 20 0
28 18 0
28 20 0
26 20 0
26 22 0
28 20 0
28 22 0
26 22 0
26 24 0
28 22 0
28 24 0
26 24 0
26 26 0
28 24 0
28 26 0
28 14 0
28 15 0
30 14 0
30 15 0
28 15 0
28 16 0
30 15 0
30 16 0
28 16 0
28 18 0
30 16 0
30 18 0
28 18 0
28 20 0
30 18 0
30 20 0
28 20 0
28 22 0
30 20 0
30 22 0
28 22 0
28 24 0
30 22 0
30 24 0
30 14 0
30 15 0
32 14 0
32 15 0
30 15 0
30 16 0
32 15 0
32 16 0
30 16 0
30 17 0
32 16 0
32 17 0
30 17 0
30 18 0
32 17 0
32 18 0
30 18 0
30 20 0
32 18 0
32 20 0
30 20 0
30 22 0
32 20 0
32 22 0
30 22 0
30 24 0
32 22 0
32 24 0
32 16 0
32 17 0
34 16 0
34 17 0
32 17 0
32 18 0
34 17 0
34 18 0
32 18 0
32 19 0
34 18 0
34 19 0
32 19 0
32 20 0
34 19 0
34 20 0
32 20 0
32 21 0
34 20 0
34 21 0
32 21 0
32 22 0
34 21 0
34 22 0
34 18 0
34 19 0
36 18 0
36 19 0
34 19 0
34 20 0
36 19 0
36 20 0
34 20 0
34 21 0
36 20 0
36 21 0
34 21 0
34 22 0
36 21 0
36 22 0
38 18 0
38 19 0
39 18 0
39 19 0
39 18 0
39 19 0
40 18 0
40 19 0
38 16 0
38 17 0
39 16 0
39 17 0
38 17 0
38 18 0
39 17 0
39 18 0
39 17 0
39 18 0
40 17 0
40 18 0
39 16 0
39 17 0
40 16 0
40 17 0
38 14 0
38 15 0
39 14 0
39 15 0
38 15 0
38 16 0
39 15 0
39 16 0
39 15 0
39 16 0
40 15 0
40 16 0
38 12 0
38 13 0
39 12 0
39 13 0
38 13 0
38 14 0
39 13 0
39 14 0
38 11 0
38 12 0
39 11 0
39 12 0
36 18 0
36 19 0
38 18 0
38 19 0
36 19 0
36 20 0
38 19 0
38 20 0
36 16 0
36 17 0
37 16 0
37 17 0
37 16 0
37 17 0
38 16 0
38 17 0
36 17 0
36 18 0
37 17 0
37 18 0
37 17 0
37 18 0
38 17 0
38 18 0
36 14 0
36 15 0
37 14 0
37 15 0
36 15 0
36 16 0
37 15 0
37 16 0
37 15 0
37 16 0
38 15 0
38 16 0
37 14 0
37 15 0
38 14 0
38 15 0
36 12 0
36 13 0
37 12 0
37 13 0
36 13 0
36 14 0
37 13 0
37 14 0
37 13 0
37 14 0
38 13 0
38 14 0
37 12 0
37 13 0
38 12 0
38 13 0
36 10 0
36 11 0
37 10 0
37 11 0
36 11 0
36 12 0
37 11 0
37 12 0
37 11 0
37 12 0
38 11 0
38 12 0
34 16 0
34 17 0
36 16 0
36 17 0
34 17 0
34 18 0
36 17 0
36 18 0
34 14 0
34 15 0
35 14 0
35 15 0
35 14 0
35 15 0
36 14 0
36 15 0
34 15 0
34 16 0
35 15 0
35 16 0
35 15 0
35 16 0
36 15 0
36 16 0
34 12 0
34 13 0
35 12 0
35 13 0
34 13 0
34 14 0
35 13 0
35 14 0
35 13 0
35 14 0
36 13 0
36 14 0
35 12 0
35 13 0
36 12 0
36 13 0
34 10 0
34 11 0
35 10 0
35 11 0
34 11 0
34 12 0
35 11 0
35 12 0
35 11 0
35 12 0
36 11 0
36 12 0
35 10 0
35 11 0
36 10 0
36 11 0
34 8 0
34 9 0
35 8 0
35 9 0
34 9 0
34 10 0
35 9 0
35 10 0
35 9 0
35 10 0
36 9 0
36 10 0
32 14 0
32 15 0
34 14 0
34 15 0
32 15 0
32 16 0
34 15 0
34 16 0
32 12 0
32 13 0
33 12 0
33 13 0
33 12 0
33 13 0
34 12 0
34 13 0
32 13 0
32 14 0
33 13 0
33 14 0
33 13 0
33 14 0
34 13 0
34 14 0
32 10 0
32 11 0
33 10 0
33 11 0
32 11 0
32 12 0
33 11 0
33 12 0
33 11 0
33 12 0
34 11 0
34 12 0
33 10 0
33 11 0
34 10 0
34 11 0
32 8 0
32 9 0
33 8 0
33 9 0
32 9 0
32 10 0
33 9 0
33 10 0
33 9 0
33 10 0
34 9 0
34 10 0
33 8 0
33 9 0
34 8 0
34 9 0
32 7 0
32 8 0
33 7 0
33 8 0
30 12 0
30 13 0
31 12 0
31 13 0
31 12 0
31 13 0
32 12 0
32 13 0
30 13 0
30 14 0
31 13 0
31 14 0
31 13 0
31 14 0
32 13 0
32 14 0
30 10 0
30 11 0
31 10 0
31 11 0
30 11 0
30 12 0
31 11 0
31 12 0
31 11 0
31 12 0
32 11 0
32 12 0
31 10 0
31 11 0
32 10 0
32 11 0
30 8 0
30 9 0
31 8 0
31 9 0
30 9 0
30 10 0
31 9 0
31 10 0
31 9 0
31 10 0
32 9 0
32 10 0
31 8 0
31 9 0
32 8 0
32 9 0
31 7 0
31 8 0
32 7 0
32 8 0
28 12 0
28 13 0
29 12 0
29 13 0
29 12 0
29 13 0
30 12 0
30 13 0
28 13 0
28 14 0
29 13 0
29 14 0
29 13 0
29 14 0
30 13 0
30 14 0
28 10 0
28 11 0
29 10 0
29 11 0
28 11 0
28 12 0
29 11 0
29 12 0
29 11 0
29 12 0
30 11 0
30 12 0
29 10 0
29 11 0
30 10 0
30 11 0
28 9 0
28 10 0
29 9 0
29 10 0
29 9 0
29 10 0
30 9 0
30 10 0
26 12 0
26 13 0
27 12 0
27 13 0
27 12 0
27 13 0
28 12 0
28 13 0
26 13 0
26 14 0
27 13 0
27 14 0
27 13 0
27 14 0
28 13 0
28 14 0
26 11 0
26 12 0
27 11 0
27 12 0
27 11 0
27 12 0
28 11 0
28 12 0
27 10 0
27 11 0
28 10 0
28 11 0
32 -6 0
32 -2.16667 0
34 -6 0
34 -2.16667 0
32 -2.16667 0
32 -2.77556e-17 0
34 -2.16667 0
34 -2.77556e-17 0
32 2.77556e-17 0
32 2 0
34 2.77556e-17 0
34 2 0
32 2 0
32 4 0
34 2 0
34 4 0
34 -6 0
34 -2.16667 0
36 -6 0
36 -2.16667 0
34 -2.16667 0
34 -2.77556e-17 0
36 -2.16667 0
36 -2.77556e-17 0
34 2.77556e-17 0
34 2 0
36 2.77556e-17 0
36 2 0
34 2 0
34 4 0
36 2 0
36 4 0
36 -6 0
36 -2.16667 0
38 -6 0
38 -2.16667 0
36 -2.16667 0
36 -2.77556e-17 0
38 -2.16667 0
38 -2.77556e-17 0
36 2.77556e-17 0
36 2 0
38 2.77556e-17 0
38 2 0
36 2 0
36 4 0
38 2 0
38 4 0
38 -6 0
38 -2.16667 0
40 -6 0
40 -2.16667 0
38 -2.16667 0
38 -2.77556e-17 0
40 -2.16667 0
40 -2.77556e-17 0
38 2.77556e-17 0
38 2 0
40 2.77556e-17 0
40 2 0
38 2 0
38 4 0
40 2 0
40 4 0
40 -6 0
40 -2.16667 0
42 -6 0
42 -2.16667 0
40 -2.16667 0
40 -2.77556e-17 0
42 -2.16667 0
42 -2.77556e-17 0
40 2.77556e-17 0
40 2 0
42 2.77556e-17 0
42 2 0
40 2 0
40 4 0
42 2 0
42 4 0
40 4 0
40 5 0
42 4 0
42 5 0
40 5 0
40 6 0
42 5 0
42 6 0
42 -6 0
42 -2.16667 0
44 -6 0
44 -2.16667 0
42 -2.16667 0
42 -2.77556e-17 0
44 -2.16667 0
44 -2.77556e-17 0
42 2.77556e-17 0
42 2 0
44 2.77556e-17 0
44 2 0
42 2 0
42 4 0
44 2 0
44 4 0
42 4 0
42 5 0
44 4 0
44 5 0
42 5 0
42 6 0
44 5 0
44 6 0
44 -6 0
44 -2.16667 0
46 -6 0
46 -2.16667 0
44 -2.16667 0
44 -2.77556e-17 0
46 -2.16667 0
46 -2.77556e-17 0
44 2.77556e-17 0
44 2 0
46 2.77556e-17 0
46 2 0
44 2 0
44 4 0
46 2 0
46 4 0
44 4 0
44 6 0
46 4 0
46 6 0
44 6 0
44 7 0
46 6 0
46 7 0
44 7 0
44 8 0
46 7 0
46 8 0
44 8 0
44 9 0
46 8 0
46 9 0
44 9 0
44 10 0
46 9 0
46 10 0
46 -6 0
46 -2.16667 0
48 -6 0
48 -2.16667 0
46 -2.16667 0
46 -2.77556e-17 0
48 -2.16667 0
48 -2.77556e-17 0
46 2.77556e-17 0
46 2 0
48 2.77556e-17 0
48 2 0
46 2 0
46 4 0
48 2 0
48 4 0
46 4 0
46 6 0
48 4 0
48 6 0
46 6 0
46 7 0
48 6 0
48 7 0
46 7 0
46 8 0
48 7 0
48 8 0
48 -6 0
48 -2.16667 0
50 -6 0
50 -2.16667 0
48 -2.16667 0
48 -2.77556e-17 0
50 -2.16667 0
50 -2.77556e-17 0
48 2.77556e-17 0
48 2 0
50 2.77556e-17 0
50 2 0
48 2 0
48 4 0
50 2 0
50 4 0
48 4 0
48 6 0
50 4 0
50 6 0
50 -6 0
50 -2.16667 0
52 -6 0
52 -2.16667 0
50 -2.16667 0
50 -2.77556e-17 0
52 -2.16667 0
52 -2.77556e-17 0
50 2.77556e-17 0
50 2 0
52 2.77556e-17 0
52 2 0
50 2 0
50 4 0
52 2 0
52 4 0
50 4 0
50 6 0
52 4 0
52 6 0
52 -6 0
52 -2.16667 0
54 -6 0
54 -2.16667 0
52 -2.16667 0
52 -2.77556e-17 0
54 -2.16667 0
54 -2.77556e-17 0
52 2.77556e-17 0
52 2 0
[...]
POINT_DATA 7636
SCALARS phi float 1
LOOKUP_TABLE default
0.997201
0.997875
1.00727
1.00582
0.997875
0.997833
1.00582
1.0048
0.997833
0.996802
1.0048
1.00769
0.996802
0.996714
1.00769
1.00855
1.00727
1.00582
0.991877
0.992643
1.00582
1.0048
0.992643
0.993165
1.0048
1.00769
0.993165
0.991798
1.00769
1.00855
0.991798
0.991305
1.00855
1.00214
0.991305
0.994307
1.00214
1.00347
0.994307
0.992591
-3.2196e-05
1.20629e-06
-0.000210144
-5.82567e-05
1.20629e-06
5.02308e-05
-5.82567e-05
6.57178e-05
5.02308e-05
6.53381e-05
6.57178e-05
0.000107535
6.53381e-05
7.14712e-05
0.000107535
0.00010452
7.14712e-05
6.42844e-05
0.00010452
0.00010895
6.42844e-05
5.85092e-05
0.00010895
0.000117309
6.57178e-05
0.000107535
-2.42418e-05
-1.44285e-05
0.000107535
0.00010452
-1.44285e-05
-1.04916e-05
0.00010452
0.00010895
-1.04916e-05
-3.89688e-06
0.00010895
0.000117309
-3.89688e-06
-4.6795e-06
5.85091e-05
5.02646e-05
0.000117309
0.000120969
5.02646e-05
-3.89907e-05
0.000120969
0.000111993
-0.000148772
-0.000203667
-0.000259783
-0.000377842
-0.000259783
-0.000377842
5.85091e-05
5.02646e-05
-0.000203667
-0.000438267
-0.000377842
-0.000619348
-0.000377842
-0.000619348
5.02646e-05
-3.89907e-05
-0.00014993
-0.00014637
7.14712e-05
6.42844e-05
-0.00014637
-0.000148772
6.42844e-05
5.85092e-05
-0.000161622
-0.000147645
5.02309e-05
6.53381e-05
-0.000147645
-0.00014993
6.5338e-05
7.14712e-05
-5.18702e-05
-0.000164139
-3.2196e-05
1.20628e-06
-0.000164139
-0.000161622
1.20629e-06
5.02309e-05
0.00110529
-5.18702e-05
0.00151501
-0.000114168
0.00151501
-0.000114168
-0.000244605
-3.2196e-05
-0.000510204
-5.24491e-05
0.000137559
1.21382e-05
-5.24493e-05
0.00403664
1.21382e-05
-0.00134122
0.000137559
1.21382e-05
-0.000438267
-0.000149418
-0.000429019
-0.000584552
0.000185436
0.00022301
-0.000584552
-0.000510204
0.00022301
0.000137559
0.00022301
0.000137559
-0.000203667
-0.000438267
0.000185436
0.00022301
-0.000148772
-0.000203667
-0.000544268
-0.000476987
0.000228876
0.000198234
-0.000476987
-0.000429018
0.000198234
0.000185436
0.000198234
0.000185436
-0.00014637
-0.000148772
0.000228875
0.000198234
-0.00014993
-0.00014637
-0.000490118
-0.000611233
0.000198198
0.000242465
-0.000611233
-0.000544268
0.000242465
0.000228875
0.000242466
0.000228876
-0.000147645
-0.00014993
0.000198198
0.000242466
-0.000161622
-0.000147645
-0.000220964
-0.000441951
7.88407e-05
0.000176378
-0.000441951
-0.000490118
0.000176378
0.000198198
0.000176378
0.000198198
-0.000164139
-0.000161622
7.88407e-05
0.000176378
-5.18702e-05
-0.000164139
0.00468909
0.00174578
-0.00118128
-0.000551048
0.00174578
-0.000220964
-0.000551048
7.88407e-05
-0.000551048
7.88407e-05
0.00110529
-5.18702e-05
0.014408
0.026275
-0.00954082
-0.0224107
-0.00954082
-0.0224107
0.00403664
0.00884032
0.00447599
0.00297519
0.00108896
0.000659791
0.00297519
0.014408
0.000659791
-0.00954082
0.000659791
-0.00954082
-5.24492e-05
0.00403664
0.00108896
0.000659791
-0.000510204
-5.24492e-05
0.00546552
0.00449902
0.000972959
0.00134543
0.00449902
0.00447599
0.00134543
0.00108896
0.00134543
0.00108896
-0.000584552
-0.000510204
0.000972959
0.00134543
-0.000429018
-0.000584552
0.00510309
0.00495286
0.00124686
0.00111478
0.00495286
0.00546552
0.00111478
0.000972959
0.00111478
0.000972959
-0.000476987
-0.000429018
0.00124686
0.00111478
-0.000544268
-0.000476987
0.0049202
0.00424591
0.00109846
0.00139007
0.00424591
0.00510309
0.00139007
0.00124686
0.00139007
0.00124686
-0.000611233
-0.000544268
0.00109846
0.00139007
-0.000490118
-0.000611233
0.00712697
0.00549266
0.000663877
0.00102378
0.00549266
0.0049202
0.00102378
0.00109846
0.00102378
0.00109846
-0.000441951
-0.000490118
0.000663878
0.00102378
-0.000220964
-0.000441951
0.0204273
0.0135546
-0.0119492
-0.0036844
0.0135546
0.00712697
-0.0036844
0.000663877
-0.0036844
0.000663877
0.00174578
-0.000220964
-0.0119492
-0.0036844
0.00468909
0.00174578
0.109458
0.0826503
0.014408
0.026275
0.757943
0.792135
0.185405
0.155762
0.792135
0.76134
0.155762
0.109458
0.155762
0.109458
0.00297519
0.014408
0.185405
0.155762
0.00447599
0.00297519
0.758465
0.758199
0.18567
0.185172
0.758198
0.757943
0.185172
0.185405
0.185172
0.185405
0.00449902
0.00447599
0.18567
0.185172
0.00546552
0.00449902
0.759527
0.760295
0.188044
0.183946
0.760295
0.758465
0.183946
0.18567
0.183946
0.18567
0.00495286
0.00546552
0.188044
0.183946
0.00510309
0.00495286
0.760183
0.760175
0.185608
0.185921
0.760175
0.759527
0.185921
0.188044
0.185921
0.188044
0.00424591
0.00510309
0.185608
0.185921
0.0049202
0.00424591
0.763684
0.754718
0.181577
0.184066
0.754718
0.760183
0.184066
0.185608
0.184066
0.185608
0.00549266
0.0049202
0.181577
0.184066
0.00712697
0.00549266
0.724809
0.763684
0.13097
0.181577
0.13097
0.181577
0.0135546
0.00712697
0.992591
0.984585
0.757943
0.792135
0.984585
0.984046
0.792135
0.76134
0.991305
0.994307
0.758465
0.758199
0.994307
0.992591
0.758199
0.757943
0.993165
0.991798
0.759527
0.760295
0.991798
0.991305
0.760295
0.758465
0.991877
0.992643
0.760183
0.760175
0.992643
0.993165
0.760175
0.759527
0.988075
0.992711
0.763684
0.754718
0.992711
0.991877
0.754718
0.760183
0.999706
0.999838
1.00025
1.00053
0.999838
1.00004
1.00053
1.00029
0.99922
0.999451
1.00084
1.00074
0.999451
1.00094
1.00074
0.998688
1.00094
1.00025
0.998688
0.999331
1.00025
1.00053
0.999331
0.998866
1.00053
1.00029
0.998866
0.99968
1.00029
1.00048
0.99968
0.998306
1.00084
1.00215
0.999035
1.00086
1.00215
1.00074
1.00086
1.0011
1.00074
0.998688
1.0011
1.0028
0.998688
0.999331
1.0028
1.00109
0.999331
0.998866
1.00109
1.00196
0.998866
0.99968
1.00196
1.00107
0.999035
1.00086
0.997448
1.00369
1.00086
1.0011
1.00369
1.00118
1.0011
1.00195
1.00118
1.00257
1.00195
1.0028
1.00257
0.995322
1.0028
1.00109
0.995322
0.994757
1.00109
1.00196
0.994757
0.997201
1.00196
1.00107
0.997201
0.997833
1.00118
1.00257
0.988802
1.01263
1.00257
0.995322
1.01263
1.00556
0.995322
0.992736
1.00556
0.995962
0.992736
0.994757
0.995962
0.996909
0.994757
0.996352
0.996909
1.0046
0.996352
0.997201
1.0046
1.00727
1.00556
0.995962
0.991171
0.986205
0.995962
0.996909
0.986205
0.988075
0.996909
1.0046
0.988075
0.992711
1.0046
1.00727
0.992711
0.991877
0.728284
0.724809
0.120142
0.13097
0.120142
0.13097
0.0204273
0.0135546
0.552386
0.675316
0.0753076
0.0685821
0.675316
0.728284
0.0685821
0.120142
0.0685821
0.120142
0.0267259
0.0204273
0.0753076
0.0685821
0.0168795
0.0267259
0.131792
0.352896
0.0114031
0.0456593
0.352896
0.552386
0.0456593
0.0753076
0.0456593
0.0753076
0.00804623
0.0168795
0.0084425
0.0423982
0.000260031
0.00642605
0.0423982
0.131792
0.00642605
0.0114031
-0.000931948
0.0084425
0.000871619
0.00026003
0.991171
0.986205
0.728284
0.724809
0.986205
0.988075
0.724809
0.763684
0.98722
0.980417
0.901573
0.983782
0.901573
0.983782
0.552386
0.675316
0.980417
0.991171
0.983782
1.00581
0.983782
1.00581
0.675316
0.728284
0.807554
0.911318
0.416347
0.634349
0.911318
0.98722
0.634349
0.901572
0.634349
0.901573
0.352896
0.552386
0.416347
0.634349
0.131792
0.352896
0.345234
0.658009
0.0945378
0.301037
0.658009
0.807554
0.301037
0.416347
0.301037
0.416347
0.0423982
0.131792
0.0945378
0.301037
0.0084425
0.0423982
0.00391052
0.0274402
0.00150357
0.00561892
0.0274402
0.345234
0.00561892
0.0945378
0.00561892
0.0945378
-0.000931949
0.0084425
0.988802
1.01263
0.98722
0.980417
1.01263
1.00556
0.980417
0.991171
0.997708
0.992008
0.992198
1.00729
0.992198
1.00729
0.807554
0.911318
0.992008
0.988802
1.00729
0.993625
1.00729
0.993625
0.911318
0.98722
0.799868
0.984718
0.635643
0.928646
0.984718
0.997708
0.928646
0.992198
0.928646
0.992198
0.658009
0.807555
0.635643
0.928646
0.345234
0.658009
0.0254669
0.233456
-0.00931087
0.146469
0.233456
0.799868
0.146469
0.635643
0.146469
0.635643
0.0274402
0.345234
-0.00931088
0.146469
0.00391051
0.0274402
0.00116418
0.0110439
-0.00280126
0.0022599
0.0110439
0.0254669
0.0022599
-0.00931088
0.0022599
-0.00931088
-0.00193012
0.00391051
0.997448
1.00369
0.997708
0.992008
1.00369
1.00118
0.992008
0.988802
0.973836
0.998379
0.865478
0.980355
0.865478
0.980355
0.799868
0.984718
0.998379
0.997448
0.980355
0.99194
0.980355
0.99194
0.984718
0.997708
0.712636
0.921678
0.310424
0.56958
0.921678
0.973836
0.56958
0.865478
0.56958
0.865478
0.233456
0.799868
0.310424
0.56958
0.0254669
0.233456
0.0616706
0.345381
0.0127272
0.06588
0.345381
0.712636
0.06588
0.310424
0.0658799
0.310424
0.0110439
0.0254669
0.0127272
0.0658799
0.00116418
0.0110439
0.00948225
0.0616706
-0.00195317
0.0127272
1.00562
1.00382
0.984394
1.00023
0.984394
1.00023
0.973836
0.998379
1.00382
0.999035
1.00023
0.99947
1.00023
0.99947
0.998379
0.997448
0.969233
0.997171
0.873115
0.994641
0.997171
1.00562
0.994641
0.984394
0.994641
0.984394
0.921678
0.973836
0.873115
0.994641
0.712636
0.921678
0.233523
0.699985
0.161139
0.496831
0.699985
0.969233
0.496831
0.873115
0.496831
0.873115
0.345381
0.712636
0.161139
0.496831
0.0616706
0.345381
0.0116849
0.161139
0.00948225
0.0616706
1.00321
0.998134
0.995481
0.997268
0.995481
0.997268
1.00562
1.00382
0.998134
1.00084
0.997268
0.999888
0.997268
0.999888
1.00382
0.999035
0.981962
0.999992
0.983812
1.0071
0.999992
1.00321
1.0071
0.995481
1.0071
0.995481
0.997171
1.00562
0.983812
1.0071
0.969233
0.997171
0.75261
0.981962
0.876509
0.983812
0.876509
0.983812
0.699985
0.969233
1.0056
0.996958
1.00569
0.998631
1.00569
0.998631
1.00322
0.998134
0.996958
0.99922
0.998631
1.0002
0.998631
1.0002
0.998134
1.00084
0.987578
1.0056
0.983255
1.00569
0.983255
1.00569
0.999992
1.00322
0.91675
0.983255
0.981962
0.999992
7.69803e-05
0.000108806
-2.45921e-05
-3.03376e-05
0.000108806
-7.88516e-05
-3.03376e-05
2.86599e-05
-7.88516e-05
2.18373e-05
2.86599e-05
-1.99696e-05
2.18373e-05
0.000219957
-1.99696e-05
-6.09576e-05
-2.45921e-05
-3.03376e-05
1.53567e-05
2.09444e-05
-3.03376e-05
2.86599e-05
2.09444e-05
-1.59667e-05
2.86599e-05
-1.99696e-05
-1.59667e-05
4.47976e-06
-1.99696e-05
-6.09576e-05
4.47976e-06
4.00003e-05
1.53567e-05
2.09444e-05
-1.40664e-05
-2.3268e-05
2.09444e-05
-1.59667e-05
-2.3268e-05
9.43771e-06
-1.59667e-05
4.47977e-06
9.43772e-06
9.73712e-06
4.47977e-06
4.00003e-05
9.73712e-06
-8.61603e-05
-1.40664e-05
-2.3268e-05
2.53494e-06
-2.10152e-06
-2.3268e-05
9.43771e-06
-2.10152e-06
-9.18324e-06
9.43771e-06
9.73712e-06
-9.18324e-06
2.25267e-05
9.73712e-06
-8.61603e-05
2.25267e-05
-3.14428e-05
2.53494e-06
-2.10152e-06
5.26373e-06
5.23752e-06
-2.10152e-06
-9.18324e-06
5.23752e-06
-8.06184e-06
-9.18324e-06
2.25267e-05
-8.06184e-06
1.25926e-05
2.25267e-05
-3.14429e-05
1.25926e-05
-2.73423e-05
-3.14429e-05
4.73089e-05
-2.73423e-05
6.0704e-06
4.73089e-05
-8.26987e-05
6.0704e-06
-5.68341e-05
5.26373e-06
5.23752e-06
-2.56948e-08
-5.80957e-07
5.23752e-06
-8.06184e-06
-5.80956e-07
-6.98828e-07
-8.06184e-06
1.25926e-05
-6.98828e-07
2.17362e-06
1.25926e-05
-2.73423e-05
2.17362e-06
-1.91387e-06
-2.73423e-05
6.0704e-06
-1.91387e-06
1.37167e-05
6.0704e-06
-5.6834e-05
1.37167e-05
2.01073e-05
-2.56948e-08
-5.80956e-07
2.45049e-08
4.74636e-07
-5.80957e-07
-6.98828e-07
4.74636e-07
5.55002e-07
-6.98828e-07
2.17362e-06
5.55002e-07
-1.7656e-06
2.17362e-06
-1.91387e-06
-1.7656e-06
2.6934e-06
-1.91387e-06
2.01073e-05
2.6934e-06
-9.13081e-06
2.01073e-05
1.35087e-05
-9.13081e-06
6.49126e-06
1.35087e-05
4.20783e-05
6.49126e-06
3.96432e-05
4.20783e-05
1.08452e-05
3.96432e-05
4.64036e-05
1.08452e-05
5.5977e-06
4.64036e-05
6.04604e-05
2.45049e-08
4.74636e-07
2.31433e-07
1.76678e-07
4.74636e-07
5.55002e-07
1.76678e-07
-4.39409e-07
5.55002e-07
-1.7656e-06
-4.39409e-07
8.64758e-07
-1.7656e-06
2.6934e-06
8.64758e-07
-9.70893e-07
2.6934e-06
-9.13081e-06
-9.70893e-07
4.35082e-06
-9.13081e-06
6.49126e-06
4.35082e-06
2.65437e-06
6.49126e-06
3.96432e-05
2.65437e-06
2.02745e-06
2.31433e-07
1.76678e-07
-6.63215e-07
-7.95151e-07
1.76678e-07
-4.39409e-07
-7.95151e-07
8.21863e-07
-4.39408e-07
8.64758e-07
8.21863e-07
-1.04823e-06
8.64758e-07
-9.70893e-07
-1.04823e-06
1.04517e-06
-9.70893e-07
4.35082e-06
1.04517e-06
-8.76329e-06
-6.63215e-07
-7.95151e-07
2.29235e-07
2.42945e-07
-7.95151e-07
8.21863e-07
2.42945e-07
-3.16747e-07
8.21863e-07
-1.04823e-06
-3.16747e-07
4.7486e-07
-1.04823e-06
1.04517e-06
4.7486e-07
-5.0771e-07
1.04517e-06
-8.76329e-06
-5.0771e-07
3.6031e-06
2.29235e-07
2.42945e-07
-6.50596e-08
-6.84378e-08
2.42945e-07
-3.16748e-07
-6.84378e-08
8.61563e-08
-3.16748e-07
4.7486e-07
8.61564e-08
-1.233e-07
4.7486e-07
-5.0771e-07
-1.233e-07
8.80165e-08
-5.0771e-07
3.6031e-06
8.80166e-08
-1.17947e-06
-6.50596e-08
-6.84378e-08
-6.57398e-08
-6.98838e-08
-6.84378e-08
8.61563e-08
-6.98838e-08
9.71937e-08
8.61563e-08
-1.233e-07
9.71937e-08
-1.56275e-07
-1.233e-07
8.80167e-08
-1.56275e-07
2.52805e-07
8.80165e-08
-1.17947e-06
2.52805e-07
-7.68813e-07
-6.57398e-08
-6.98839e-08
-9.8025e-09
-9.98417e-09
-6.98838e-08
9.71937e-08
-9.98417e-09
1.72342e-08
9.71937e-08
-1.56275e-07
1.72342e-08
-3.30677e-08
-1.56275e-07
2.52805e-07
-3.30677e-08
9.10018e-08
2.52805e-07
-7.68813e-07
9.10018e-08
2.09639e-08
-2.43154e-05
-1.05646e-05
4.20783e-05
1.08452e-05
-1.05646e-05
-4.42238e-05
1.08452e-05
5.5977e-06
-5.68341e-05
5.44387e-06
2.01073e-05
1.35087e-05
5.44387e-06
-2.43154e-05
1.35087e-05
4.20783e-05
-1.74968e-05
-0.000495051
3.08761e-05
0.000200537
-4.12259e-06
-2.13995e-05
-7.01845e-05
-0.000211428
-2.13995e-05
-1.74968e-05
-0.000211428
3.08761e-05
-0.000211429
3.08761e-05
-1.05646e-05
-4.42238e-05
-7.01845e-05
-0.000211428
-2.43154e-05
-1.05646e-05
-8.26987e-05
0.0001811
-8.74812e-05
0.000112429
-8.74812e-05
0.000112429
-5.68341e-05
5.44387e-06
0.0001811
-4.12259e-06
0.000112429
-7.01845e-05
0.000112429
-7.01845e-05
5.44387e-06
-2.43154e-05
-0.000124729
-0.000931949
2.53394e-05
0.000871619
2.53395e-05
0.000871619
-1.74968e-05
-0.000495051
4.73149e-05
0.000220817
4.76817e-05
-0.000198572
0.000220817
-0.000124729
-0.000198572
2.53395e-05
-0.000198572
2.53395e-05
-2.13995e-05
-1.74968e-05
4.76817e-05
-0.000198572
-4.12259e-06
-2.13995e-05
1.79647e-05
5.97005e-06
-3.65608e-05
0.000112422
-3.65608e-05
0.000112422
-8.26987e-05
0.0001811
5.97005e-06
4.73149e-05
0.000112422
4.76817e-05
0.000112422
4.76817e-05
0.0001811
-4.12259e-06
-8.61603e-05
-0.000204112
-3.14429e-05
4.73089e-05
-0.000204112
1.79647e-05
4.73089e-05
-8.26987e-05
0.00150357
0.00561892
-0.000124729
-0.000931949
0.00194058
-0.00193012
0.000181941
-0.00117821
-0.00193012
0.00391052
-0.00117821
0.00150357
-0.00117821
0.00150357
0.000220817
-0.000124729
0.00018194
-0.00117821
4.73149e-05
0.000220817
0.000253805
-0.000632131
0.000107063
-0.000312153
-0.000632131
0.00194058
-0.000312153
0.000181941
-0.000312153
0.000181941
5.97004e-06
4.73149e-05
0.000107063
-0.000312153
1.79647e-05
5.97005e-06
4.00003e-05
0.000404344
-1.02501e-05
0.000184924
-1.02501e-05
0.000184924
-8.61603e-05
-0.000204112
0.000404344
0.000253805
0.000184924
0.000107063
0.000184924
0.000107063
-0.000204112
1.79647e-05
-0.00280126
0.0022599
0.00194058
-0.00193012
-0.000130403
0.00144138
-0.000181002
0.00137561
0.00144138
0.00116418
0.00137561
-0.00280126
0.00137561
-0.00280126
-0.000632131
0.00194058
-0.000181002
0.00137561
0.000253805
-0.000632131
-6.09576e-05
-0.000574816
-2.70846e-05
-0.00056699
-2.70846e-05
-0.00056699
4.00003e-05
0.000404344
-0.000574816
-0.000130403
-0.00056699
-0.000181002
-0.00056699
-0.000181002
0.000404344
0.000253805
-0.00195317
0.0127272
0.00144138
0.00116418
0.000716982
-0.00195317
-0.000130404
0.00144138
0.000219957
-9.93338e-05
7.50598e-05
0.00131012
7.50598e-05
0.00131012
-6.09576e-05
-0.000574816
-9.93338e-05
-0.00234466
0.00131012
0.000716983
0.00131012
0.000716983
-0.000574816
-0.000130403
3.96432e-05
4.64036e-05
2.02745e-06
8.13976e-06
4.64036e-05
6.04604e-05
8.13976e-06
2.03303e-05
6.04604e-05
8.16188e-05
2.03303e-05
3.69743e-05
8.16188e-05
8.86453e-05
3.69743e-05
2.31174e-05
4.35082e-06
2.02745e-06
-8.76329e-06
8.8989e-06
2.02745e-06
2.03303e-05
8.8989e-06
-2.13344e-05
2.03303e-05
3.69743e-05
-2.13344e-05
-3.30462e-06
3.69743e-05
2.31174e-05
-3.30462e-06
6.07166e-06
2.31174e-05
-8.72133e-05
6.07167e-06
-7.18569e-06
-8.72133e-05
-2.54179e-05
-7.18569e-06
4.21865e-05
-2.54179e-05
0.000132035
4.21865e-05
7.27045e-05
0.000132035
-0.000136242
7.27045e-05
8.93095e-05
-0.000136242
-0.000494942
8.93095e-05
4.04721e-05
-0.000494942
-0.000496486
4.04721e-05
5.61776e-05
-0.000496486
-0.000489955
5.61776e-05
-4.17472e-05
-0.000489955
-0.000210144
-4.17472e-05
-6.71523e-05
-0.000210144
-5.82567e-05
-6.71523e-05
-4.72269e-05
-5.82567e-05
6.57178e-05
-4.72269e-05
-2.42418e-05
-8.76329e-06
8.8989e-06
3.6031e-06
-3.35466e-06
8.8989e-06
-2.13344e-05
-3.35466e-06
7.22806e-06
-2.13344e-05
6.07166e-06
7.22806e-06
-1.9346e-06
6.07166e-06
-7.18569e-06
-1.9346e-06
-8.35915e-07
-7.18569e-06
4.21865e-05
-8.35915e-07
-6.7144e-06
4.21865e-05
7.27045e-05
-6.7144e-06
-2.9467e-05
7.27045e-05
8.93095e-05
-2.9467e-05
-4.56961e-05
8.93095e-05
4.04721e-05
-4.56961e-05
-3.36961e-05
4.04721e-05
5.61776e-05
-3.36961e-05
-1.1823e-05
5.61776e-05
-4.17472e-05
-1.1823e-05
-1.84765e-06
-4.17472e-05
-6.71523e-05
-1.84765e-06
8.61707e-07
-6.71523e-05
-2.42418e-05
8.61708e-07
8.24627e-06
-2.42418e-05
-1.04916e-05
8.24627e-06
5.51631e-06
3.6031e-06
-3.35466e-06
-1.17947e-06
1.28148e-06
-3.35466e-06
7.22806e-06
1.28148e-06
-2.12951e-06
7.22805e-06
-1.9346e-06
-2.12951e-06
1.93656e-06
-1.9346e-06
-6.7144e-06
1.93656e-06
3.50155e-06
-6.7144e-06
-4.56961e-05
3.50155e-06
1.39836e-05
-4.56962e-05
-1.1823e-05
1.39836e-05
5.2029e-06
-1.1823e-05
8.61707e-07
5.2029e-06
-1.00296e-06
8.61708e-07
8.24627e-06
-1.00296e-06
-2.25888e-06
8.24627e-06
5.51632e-06
-2.25888e-06
-2.4535e-06
-1.17947e-06
1.28148e-06
-7.68813e-07
4.01936e-07
1.28148e-06
-2.12951e-06
4.01936e-07
-1.93625e-06
-2.12951e-06
1.93656e-06
-1.93625e-06
-2.17198e-06
1.93656e-06
3.50155e-06
-2.17198e-06
-1.09219e-06
3.50155e-06
1.39836e-05
-1.09219e-06
1.10923e-05
1.39836e-05
5.2029e-06
1.10923e-05
2.15428e-06
5.2029e-06
-1.00296e-06
2.15428e-06
5.08712e-07
-1.00296e-06
-2.25888e-06
5.08712e-07
-1.94195e-06
-2.25888e-06
-2.4535e-06
-1.94195e-06
-1.18199e-08
-7.68813e-07
4.01936e-07
2.09639e-08
-2.22823e-07
4.01936e-07
-1.93625e-06
-2.22823e-07
-2.06652e-07
-1.93625e-06
-2.17198e-06
-2.06652e-07
-1.67124e-06
-2.17198e-06
-1.09219e-06
-1.67124e-06
-1.69604e-06
-1.09219e-06
1.10923e-05
-1.69604e-06
5.46095e-07
1.10923e-05
2.15428e-06
5.46095e-07
-6.3842e-07
2.15428e-06
5.08712e-07
-6.3842e-07
5.57362e-07
5.08711e-07
-1.94195e-06
5.57362e-07
-1.038e-07
-1.94195e-06
-1.18194e-08
-1.038e-07
8.17163e-07
0.0001767
-0.000244605
-0.000496486
-0.000489955
-0.000244605
-3.2196e-05
-0.000489955
-0.000210144
-5.14797e-05
2.7248e-05
-0.000136242
-0.000494942
2.7248e-05
0.0001767
-0.000494942
-0.000496486
-0.000157684
-0.000193419
-2.54179e-05
0.000132035
-0.000193419
-5.14797e-05
0.000132035
-0.000136242
8.86453e-05
-1.6778e-05
2.31174e-05
-8.72133e-05
-1.6778e-05
-0.000157683
-8.72133e-05
-2.54179e-05
0.00352863
0.00110529
0.00430101
0.00151501
0.00430101
0.00151501
0.0001767
-0.000244605
0.00128564
0.00363095
0.000146913
0.00270249
0.00363095
0.00352862
0.00270249
0.00430101
0.00270249
0.00430101
2.7248e-05
0.0001767
0.000146913
0.00270249
-5.14797e-05
2.7248e-05
8.20265e-05
-0.000176844
0.000170706
-0.00148588
-0.000176844
0.00128564
-0.00148588
0.000146913
-0.00148588
0.000146913
-0.000193419
-5.14797e-05
0.000170706
-0.00148588
-0.000157684
-0.000193419
2.95234e-05
0.000228971
2.45285e-05
0.000202003
2.45285e-05
0.000202003
8.86453e-05
-1.6778e-05
0.000228971
8.20265e-05
0.000202003
0.000170706
0.000202003
0.000170706
-1.6778e-05
-0.000157684
5.5977e-06
3.72369e-05
6.04604e-05
8.16188e-05
3.72369e-05
2.95234e-05
8.16188e-05
8.86453e-05
-0.00118128
-0.000551048
0.00352862
0.00110529
0.00511959
0.00819498
-0.001883
-0.00309833
0.00819498
0.00468909
-0.00309833
-0.00118128
-0.00309834
-0.00118128
0.00363095
0.00352862
-0.001883
-0.00309833
0.00128564
0.00363095
0.000819219
0.00260513
0.000141856
-0.000337098
0.00260513
0.00511959
-0.000337098
-0.001883
-0.000337099
-0.001883
-0.000176844
0.00128564
0.000141856
-0.000337098
8.20265e-05
-0.000176844
-7.73664e-06
-0.000918653
0.000131954
-0.000144986
-0.000918653
0.000819219
-0.000144986
0.000141856
-0.000144986
0.000141856
0.000228971