# vtk DataFile Version 2.0
Hex test
ASCII
DATASET UNSTRUCTURED_GRID
POINTS 10440 float
6 46 0
6 48 0
8 46 0
8 48 0
6 48 0
6 50 0
8 48 0
8 50 0
6 50 0
6 52 0
8 50 0
8 52 0
6 52 0
6 54 0
8 52 0
8 54 0
6 54 0
6 56.1667 0
8 54 0
8 56.1667 0
8 46 0
8 48 0
10 46 0
10 48 0
8 48 0
8 50 0
10 48 0
10 50 0
8 50 0
8 52 0
10 50 0
10 52 0
8 52 0
8 54 0
10 52 0
10 54 0
8 54 0
8 56.1667 0
10 54 0
10 56.1667 0
8 56.1667 0
8 60 0
10 56.1667 0
10 60 0
10 46 0
10 48 0
12 46 0
12 48 0
10 48 0
10 50 0
12 48 0
12 50 0
10 50 0
10 52 0
12 50 0
12 52 0
10 52 0
10 54 0
12 52 0
12 54 0
10 54 0
10 56.1667 0
12 54 0
12 56.1667 0
10 56.1667 0
10 60 0
12 56.1667 0
12 60 0
12 46 0
12 48 0
14 46 0
14 48 0
12 48 0
12 50 0
14 48 0
14 50 0
12 50 0
12 52 0
14 50 0
14 52 0
12 52 0
12 54 0
14 52 0
14 54 0
12 54 0
12 56.1667 0
14 54 0
14 56.1667 0
12 56.1667 0
12 60 0
14 56.1667 0
14 60 0
14 46 0
14 48 0
16 46 0
16 48 0
14 48 0
14 50 0
16 48 0
16 50 0
14 50 0
14 52 0
16 50 0
16 52 0
14 52 0
14 54 0
16 52 0
16 54 0
14 54 0
14 56.1667 0
16 54 0
16 56.1667 0
14 56.1667 0
14 60 0
16 56.1667 0
16 60 0
16 46 0
16 48 0
18 46 0
18 48 0
16 48 0
16 50 0
18 48 0
18 50 0
16 50 0
16 52 0
18 50 0
18 52 0
16 52 0
16 54 0
18 52 0
18 54 0
16 54 0
16 56.1667 0
18 54 0
18 56.1667 0
16 56.1667 0
16 60 0
18 56.1667 0
18 60 0
18 46 0
18 48 0
20 46 0
20 48 0
18 48 0
18 50 0
20 48 0
20 50 0
18 50 0
18 52 0
20 50 0
20 52 0
18 52 0
18 54 0
20 52 0
20 54 0
18 54 0
18 56.1667 0
20 54 0
20 56.1667 0
18 56.1667 0
18 60 0
20 56.1667 0
20 60 0
20 46 0
20 48 0
22 46 0
22 48 0
20 48 0
20 50 0
22 48 0
22 50 0
20 50 0
20 52 0
22 50 0
22 52 0
20 52 0
20 54 0
22 52 0
22 54 0
20 54 0
20 56.1667 0
22 54 0
22 56.1667 0
20 56.1667 0
20 60 0
22 56.1667 0
22 60 0
22 46 0
22 48 0
24 46 0
24 48 0
22 48 0
22 50 0
24 48 0
24 50 0
22 50 0
22 52 0
24 50 0
24 52 0
22 52 0
22 54 0
24 52 0
24 54 0
22 54 0
22 56.1667 0
24 54 0
24 56.1667 0
22 56.1667 0
22 60 0
24 56.1667 0
24 60 0
24 46 0
24 47 0
26 46 0
26 47 0
24 47 0
24 48 0
26 47 0
26 48 0
26 44 0
26 45 0
27 44 0
27 45 0
27 44 0
27 45 0
28 44 0
28 45 0
26 42 0
26 43 0
27 42 0
27 43 0
26 43 0
26 44 0
27 43 0
27 44 0
27 43 0
27 44 0
28 43 0
28 44 0
24 44 0
24 45 0
25 44 0
25 45 0
25 44 0
25 45 0
26 44 0
26 45 0
24 45 0
24 46 0
25 45 0
25 46 0
25 45 0
25 46 0
26 45 0
26 46 0
24 42 0
24 43 0
25 42 0
25 43 0
24 43 0
24 44 0
25 43 0
25 44 0
25 43 0
25 44 0
26 43 0
26 44 0
25 42 0
25 43 0
26 42 0
26 43 0
24 40 0
24 41 0
25 40 0
25 41 0
24 41 0
24 42 0
25 41 0
25 42 0
25 41 0
25 42 0
26 41 0
26 42 0
22 44 0
22 45 0
23 44 0
23 45 0
23 44 0
23 45 0
24 44 0
24 45 0
22 45 0
22 46 0
23 45 0
23 46 0
23 45 0
23 46 0
24 45 0
24 46 0
22 42 0
22 43 0
23 42 0
23 43 0
22 43 0
22 44 0
23 43 0
23 44 0
23 43 0
23 44 0
24 43 0
24 44 0
23 42 0
23 43 0
24 42 0
24 43 0
22 40 0
22 41 0
23 40 0
23 41 0
22 41 0
22 42 0
23 41 0
23 42 0
23 41 0
23 42 0
24 41 0
24 42 0
23 40 0
23 41 0
24 40 0
24 41 0
20 44 0
20 45 0
21 44 0
21 45 0
21 44 0
21 45 0
22 44 0
22 45 0
20 45 0
20 46 0
21 45 0
21 46 0
21 45 0
21 46 0
22 45 0
22 46 0
20 42 0
20 43 0
21 42 0
21 43 0
20 43 0
20 44 0
21 43 0
21 44 0
21 43 0
21 44 0
22 43 0
22 44 0
21 42 0
21 43 0
22 42 0
22 43 0
20 40 0
20 41 0
21 40 0
21 41 0
20 41 0
20 42 0
21 41 0
21 42 0
21 41 0
21 42 0
22 41 0
22 42 0
21 40 0
21 41 0
22 40 0
22 41 0
18 44 0
18 45 0
19 44 0
19 45 0
19 44 0
19 45 0
20 44 0
20 45 0
18 45 0
18 46 0
19 45 0
19 46 0
19 45 0
19 46 0
20 45 0
20 46 0
18 42 0
18 43 0
19 42 0
19 43 0
18 43 0
18 44 0
19 43 0
19 44 0
19 43 0
19 44 0
20 43 0
20 44 0
19 42 0
19 43 0
20 42 0
20 43 0
18 41 0
18 42 0
19 41 0
19 42 0
19 41 0
19 42 0
20 41 0
20 42 0
19 40 0
19 41 0
20 40 0
20 41 0
16 44 0
16 45 0
17 44 0
17 45 0
17 44 0
17 45 0
18 44 0
18 45 0
16 45 0
16 46 0
17 45 0
17 46 0
17 45 0
17 46 0
18 45 0
18 46 0
16 42 0
16 43 0
17 42 0
17 43 0
16 43 0
16 44 0
17 43 0
17 44 0
17 43 0
17 44 0
18 43 0
18 44 0
17 42 0
17 43 0
18 42 0
18 43 0
16 41 0
16 42 0
17 41 0
17 42 0
17 41 0
17 42 0
18 41 0
18 42 0
14 44 0
14 45 0
15 44 0
15 45 0
15 44 0
15 45 0
16 44 0
16 45 0
14 45 0
14 46 0
15 45 0
15 46 0
15 45 0
15 46 0
16 45 0
16 46 0
14 42 0
14 43 0
15 42 0
15 43 0
14 43 0
14 44 0
15 43 0
15 44 0
15 43 0
15 44 0
16 43 0
16 44 0
15 42 0
15 43 0
16 42 0
16 43 0
14 41 0
14 42 0
15 41 0
15 42 0
15 41 0
15 42 0
16 41 0
16 42 0
12 44 0
12 45 0
13 44 0
13 45 0
13 44 0
13 45 0
14 44 0
14 45 0
12 45 0
12 46 0
13 45 0
13 46 0
13 45 0
13 46 0
14 45 0
14 46 0
12 42 0
12 43 0
13 42 0
13 43 0
12 43 0
12 44 0
13 43 0
13 44 0
13 43 0
13 44 0
14 43 0
14 44 0
13 42 0
13 43 0
14 42 0
14 43 0
12 40 0
12 41 0
13 40 0
13 41 0
12 41 0
12 42 0
13 41 0
13 42 0
13 41 0
13 42 0
14 41 0
14 42 0
13 40 0
13 41 0
14 40 0
14 41 0
10 44 0
10 45 0
11 44 0
11 45 0
11 44 0
11 45 0
12 44 0
12 45 0
10 45 0
10 46 0
11 45 0
11 46 0
11 45 0
11 46 0
12 45 0
12 46 0
10 42 0
10 43 0
11 42 0
11 43 0
10 43 0
10 44 0
11 43 0
11 44 0
11 43 0
11 44 0
12 43 0
12 44 0
11 42 0
11 43 0
12 42 0
12 43 0
10 40 0
10 41 0
11 40 0
11 41 0
10 41 0
10 42 0
11 41 0
11 42 0
11 41 0
11 42 0
12 41 0
12 42 0
11 40 0
11 41 0
12 40 0
12 41 0
8 44 0
8 45 0
9 44 0
9 45 0
9 44 0
9 45 0
10 44 0
10 45 0
8 45 0
8 46 0
9 45 0
9 46 0
9 45 0
9 46 0
10 45 0
10 46 0
8 42 0
8 43 0
9 42 0
9 43 0
8 43 0
8 44 0
9 43 0
9 44 0
9 43 0
9 44 0
10 43 0
10 44 0
9 42 0
9 43 0
10 42 0
10 43 0
8 41 0
8 42 0
9 41 0
9 42 0
9 41 0
9 42 0
10 41 0
10 42 0
9 40 0
9 41 0
10 40 0
10 41 0
6 44 0
6 45 0
7 44 0
7 45 0
7 44 0
7 45 0
8 44 0
8 45 0
6 45 0
6 46 0
7 45 0
7 46 0
7 45 0
7 46 0
8 45 0
8 46 0
6 43 0
6 44 0
7 43 0
7 44 0
7 43 0
7 44 0
8 43 0
8 44 0
7 42 0
7 43 0
8 42 0
8 43 0
-18 24 0
-18 26 0
-14.1667 24 0
-14.1667 26 0
-18 26 0
-18 28 0
-14.1667 26 0
-14.1667 28 0
-18 28 0
-18 30 0
-14.1667 28 0
-14.1667 30 0
-18 30 0
-18 32 0
-14.1667 30 0
-14.1667 32 0
-18 32 0
-18 34 0
-14.1667 32 0
-14.1667 34 0
-18 34 0
-18 36 0
-14.1667 34 0
-14.1667 36 0
-18 36 0
-18 38 0
-14.1667 36 0
-14.1667 38 0
-18 38 0
-18 40 0
-14.1667 38 0
-14.1667 40 0
-18 40 0
-18 42 0
-14.1667 40 0
-14.1667 42 0
-18 42 0
-18 44 0
-14.1667 42 0
-14.1667 44 0
-18 44 0
-18 46 0
-14.1667 44 0
-14.1667 46 0
-18 46 0
-18 48 0
-14.1667 46 0
-14.1667 48 0
-18 48 0
-18 50 0
-14.1667 48 0
-14.1667 50 0
-18 50 0
-18 52 0
-14.1667 50 0
-14.1667 52 0
-18 52 0
-18 54 0
-14.1667 52 0
-14.1667 54 0
-18 54 0
-18 56.1667 0
-14.1667 54 0
-14.1667 56.1667 0
-18 56.1667 0
-18 60 0
-14.1667 56.1667 0
-14.1667 60 0
-14.1667 24 0
-14.1667 26 0
-12 24 0
-12 26 0
-14.1667 26 0
-14.1667 28 0
-12 26 0
-12 28 0
-14.1667 28 0
-14.1667 30 0
-12 28 0
-12 30 0
-14.1667 30 0
-14.1667 32 0
-12 30 0
-12 32 0
-14.1667 32 0
-14.1667 34 0
-12 32 0
-12 34 0
-14.1667 34 0
-14.1667 36 0
-12 34 0
-12 36 0
-14.1667 36 0
-14.1667 38 0
-12 36 0
-12 38 0
-14.1667 38 0
-14.1667 40 0
-12 38 0
-12 40 0
-14.1667 40 0
-14.1667 42 0
-12 40 0
-12 42 0
-14.1667 42 0
-14.1667 44 0
-12 42 0
-12 44 0
-14.1667 44 0
-14.1667 46 0
-12 44 0
-12 46 0
-14.1667 46 0
-14.1667 48 0
-12 46 0
-12 48 0
-14.1667 48 0
-14.1667 50 0
-12 48 0
-12 50 0
-14.1667 50 0
-14.1667 52 0
-12 50 0
-12 52 0
-14.1667 52 0
-14.1667 54 0
-12 52 0
-12 54 0
-14.1667 54 0
-14.1667 56.1667 0
-12 54 0
-12 56.1667 0
-14.1667 56.1667 0
-14.1667 60 0
-12 56.1667 0
-12 60 0
-12 26 0
-12 28 0
-10 26 0
-10 28 0
-12 28 0
-12 30 0
-10 28 0
-10 30 0
-12 30 0
-12 32 0
-10 30 0
-10 32 0
-12 32 0
-12 34 0
-10 32 0
-10 34 0
-12 34 0
-12 36 0
-10 34 0
-10 36 0
-12 36 0
-12 38 0
-10 36 0
-10 38 0
-12 38 0
-12 40 0
-10 38 0
-10 40 0
-12 40 0
-12 42 0
-10 40 0
-10 42 0
-12 42 0
-12 44 0
-10 42 0
-10 44 0
-12 44 0
-12 46 0
-10 44 0
-10 46 0
-12 46 0
-12 48 0
-10 46 0
-10 48 0
-12 48 0
-12 50 0
-10 48 0
-10 50 0
-12 50 0
-12 52 0
-10 50 0
-10 52 0
-12 52 0
-12 54 0
-10 52 0
-10 54 0
-12 54 0
-12 56.1667 0
-10 54 0
-10 56.1667 0
-12 56.1667 0
-12 60 0
-10 56.1667 0
-10 60 0
-10 26 0
-10 28 0
-8 26 0
-8 28 0
-10 28 0
-10 30 0
-8 28 0
-8 30 0
-10 30 0
-10 32 0
-8 30 0
-8 32 0
-10 32 0
-10 34 0
-8 32 0
-8 34 0
-10 34 0
-10 36 0
-8 34 0
-8 36 0
-10 36 0
-10 38 0
-8 36 0
-8 38 0
-10 38 0
-10 40 0
-8 38 0
-8 40 0
-10 40 0
-10 42 0
-8 40 0
-8 42 0
-10 42 0
-10 44 0
-8 42 0
-8 44 0
-10 44 0
-10 46 0
-8 44 0
-8 46 0
-10 46 0
-10 48 0
-8 46 0
-8 48 0
-10 48 0
-10 50 0
-8 48 0
-8 50 0
-10 50 0
-10 52 0
-8 50 0
-8 52 0
-10 52 0
-10 54 0
-8 52 0
-8 54 0
-10 54 0
-10 56.1667 0
-8 54 0
-8 56.1667 0
-10 56.1667 0
-10 60 0
-8 56.1667 0
-8 60 0
-8 30 0
-8 32 0
-6 30 0
-6 32 0
-8 32 0
-8 34 0
-6 32 0
-6 34 0
-8 34 0
-8 36 0
-6 34 0
-6 36 0
-8 36 0
-8 38 0
-6 36 0
-6 38 0
-8 38 0
-8 40 0
-6 38 0
-6 40 0
-8 40 0
-8 42 0
-6 40 0
-6 42 0
-8 42 0
-8 44 0
-6 42 0
-6 44 0
-8 44 0
-8 46 0
-6 44 0
-6 46 0
-8 46 0
-8 48 0
-6 46 0
-6 48 0
-8 48 0
-8 50 0
-6 48 0
-6 50 0
-8 50 0
-8 52 0
-6 50 0
-6 52 0
-8 52 0
-8 54 0
-6 52 0
-6 54 0
-8 54 0
-8 56.1667 0
-6 54 0
-6 56.1667 0
-8 56.1667 0
-8 60 0
-6 56.1667 0
-6 60 0
-6 34 0
-6 36 0
-4 34 0
-4 36 0
-6 36 0
-6 38 0
-4 36 0
-4 38 0
-6 38 0
-6 40 0
-4 38 0
-4 40 0
-6 40 0
-6 42 0
-4 40 0
-4 42 0
-6 42 0
-6 44 0
-4 42 0
-4 44 0
-6 44 0
-6 46 0
-4 44 0
-4 46 0
-6 46 0
-6 48 0
-4 46 0
-4 48 0
-6 48 0
-6 50 0
-4 48 0
-4 50 0
-6 50 0
-6 52 0
-4 50 0
-4 52 0
-6 52 0
-6 54 0
-4 52 0
-4 54 0
-6 54 0
-6 56.1667 0
-4 54 0
-4 56.1667 0
-6 56.1667 0
-6 60 0
-4 56.1667 0
-4 60 0
-4 36 0
-4 38 0
-2 36 0
-2 38 0
-4 38 0
-4 40 0
-2 38 0
-2 40 0
-4 40 0
-4 42 0
-2 40 0
-2 42 0
-4 42 0
-4 44 0
-2 42 0
-2 44 0
-4 44 0
-4 46 0
-2 44 0
-2 46 0
-4 46 0
-4 48 0
-2 46 0
-2 48 0
-4 48 0
-4 50 0
-2 48 0
-2 50 0
-4 50 0
-4 52 0
-2 50 0
-2 52 0
-4 52 0
-4 54 0
-2 52 0
-2 54 0
-4 54 0
-4 56.1667 0
-2 54 0
-2 56.1667 0
-4 56.1667 0
-4 60 0
-2 56.1667 0
-2 60 0
-2 38 0
-2 39 0
-2.77556e-17 38 0
8.32667e-17 39 0
-2 39 0
-2 40 0
8.32667e-17 39 0
-5.55112e-17 40 0
-2 40 0
-2 41 0
-2.77556e-17 40 0
8.32667e-17 41 0
-2 41 0
-2 42 0
8.32667e-17 41 0
-5.55112e-17 42 0
-2 42 0
-2 43 0
-2.77556e-17 42 0
8.32667e-17 43 0
-2 43 0
-2 44 0
8.32667e-17 43 0
-5.55112e-17 44 0
-2 44 0
-2 45 0
-2.77556e-17 44 0
5.55112e-17 45 0
-2 45 0
-2 46 0
5.55112e-17 45 0
-6.245e-17 46 0
-2 46 0
-2 48 0
-8.32667e-17 46 0
[...]
POINT_DATA 10440
SCALARS phi float 1
LOOKUP_TABLE default
2.07031e-05
3.42577e-05
-2.95992e-05
-6.92174e-05
3.42577e-05
-2.32973e-05
-6.92174e-05
4.72359e-05
-2.32973e-05
1.32521e-05
4.72359e-05
-2.70427e-05
1.32521e-05
-7.82374e-06
-2.70427e-05
1.59939e-05
-7.82374e-06
4.80256e-06
1.59939e-05
-9.91655e-06
-2.95992e-05
-6.92174e-05
2.57265e-05
3.39556e-05
-6.92174e-05
4.72359e-05
3.39556e-05
-1.76788e-05
4.72359e-05
-2.70427e-05
-1.76788e-05
9.79371e-06
-2.70427e-05
1.59939e-05
9.79371e-06
-6.06277e-06
1.59939e-05
-9.91655e-06
-6.06277e-06
3.78354e-06
-9.91655e-06
-8.21499e-06
3.78354e-06
5.25569e-06
2.57265e-05
3.39556e-05
6.50748e-05
5.43495e-05
3.39556e-05
-1.76788e-05
5.43495e-05
-1.46034e-05
-1.76788e-05
9.79371e-06
-1.46034e-05
5.57425e-06
9.79371e-06
-6.06277e-06
5.57425e-06
-3.24156e-06
-6.06277e-06
3.78354e-06
-3.24156e-06
1.94359e-06
3.78354e-06
5.25569e-06
1.94359e-06
1.14793e-06
6.50748e-05
5.43495e-05
7.40906e-05
-7.54418e-05
5.43495e-05
-1.46034e-05
-7.54418e-05
1.2397e-05
-1.46034e-05
5.57425e-06
1.2397e-05
-6.38656e-06
5.57425e-06
-3.24156e-06
-6.38656e-06
3.74609e-06
-3.24156e-06
1.94359e-06
3.74609e-06
-2.25297e-06
1.94359e-06
1.14793e-06
-2.25297e-06
-1.82986e-06
7.40906e-05
-7.54418e-05
8.61708e-05
-6.31959e-05
-7.54418e-05
1.2397e-05
-6.31959e-05
-1.41338e-05
1.2397e-05
-6.38656e-06
-1.41337e-05
7.34027e-06
-6.38656e-06
3.74609e-06
7.34027e-06
-4.18594e-06
3.74609e-06
-2.25297e-06
-4.18594e-06
2.45826e-06
-2.25297e-06
-1.82986e-06
2.45826e-06
2.46226e-06
8.61708e-05
-6.31959e-05
-0.000127296
2.20925e-05
-6.31959e-05
-1.41338e-05
2.20925e-05
1.91493e-05
-1.41337e-05
7.34027e-06
1.91493e-05
-6.66451e-06
7.34027e-06
-4.18594e-06
-6.66451e-06
4.16761e-06
-4.18594e-06
2.45826e-06
4.16761e-06
-2.72446e-06
2.45826e-06
2.46226e-06
-2.72446e-06
-2.32652e-06
-0.000127296
2.20925e-05
3.12359e-05
-1.1838e-05
2.20925e-05
1.91493e-05
-1.1838e-05
-3.80249e-05
1.91493e-05
-6.66451e-06
-3.80249e-05
2.46288e-05
-6.66451e-06
4.16761e-06
2.46288e-05
-1.42013e-05
4.1676e-06
-2.72446e-06
-1.42013e-05
8.68994e-06
-2.72446e-06
-2.32652e-06
8.68993e-06
7.75049e-06
3.12359e-05
-1.1838e-05
5.39999e-05
1.025e-05
-1.1838e-05
-3.80249e-05
1.025e-05
-3.83835e-05
-3.80249e-05
2.46288e-05
-3.83835e-05
2.23066e-05
2.46288e-05
-1.42013e-05
2.23066e-05
-1.3002e-05
-1.42013e-05
8.68994e-06
-1.3002e-05
8.0009e-06
8.68994e-06
7.75049e-06
8.0009e-06
6.94949e-06
5.39999e-05
1.025e-05
4.61653e-05
-2.10177e-05
1.025e-05
-3.83835e-05
-2.10177e-05
-4.38179e-05
-3.83835e-05
2.23066e-05
-4.38178e-05
2.72634e-05
2.23066e-05
-1.3002e-05
2.72634e-05
-1.57299e-05
-1.3002e-05
8.0009e-06
-1.57299e-05
9.56132e-06
8.0009e-06
6.94949e-06
9.56132e-06
8.44716e-06
4.61653e-05
-0.000395654
-7.67797e-05
-0.000520682
-0.000395654
-2.10177e-05
-0.000520682
-0.000211229
-0.00131317
0.000712979
-0.00123879
0.000702501
-0.00123879
0.000702501
-0.000599822
0.000402676
-0.00509022
0.00274641
-0.00465829
0.00252243
0.00274641
-0.00131317
0.00252243
-0.00123879
0.00252243
-0.00123879
0.00124881
-0.000599822
-0.00121143
0.000531467
-0.00133031
0.000633227
-0.00133031
0.000633227
-0.00131317
0.000712979
0.000531467
4.61653e-05
0.000633227
1.26573e-05
0.000633227
1.26573e-05
0.000712979
-7.67798e-05
-0.00496908
0.00261848
-0.00533715
0.00283085
0.00261848
-0.00121143
0.00283085
-0.00133031
0.00283085
-0.00133031
0.00274641
-0.00131317
-0.00533715
0.00283085
-0.00509022
0.00274641
0.0429474
0.011868
0.074526
0.0135803
0.011868
-0.00496908
0.0135803
-0.00533715
0.0135803
-0.00533715
0.013734
-0.00509022
-0.000822481
0.000383972
-0.000910753
0.000434126
-0.000910753
0.000434126
-0.00121143
0.000531467
0.000383972
5.39999e-05
0.000434125
5.14432e-05
0.000434125
5.14432e-05
0.000531467
4.61653e-05
-0.00327772
0.00170654
-0.00359695
0.00188889
0.00170654
-0.000822481
0.00188889
-0.000910753
0.00188889
-0.000910753
0.00261848
-0.00121143
-0.00359695
0.00188889
-0.00496908
0.00261848
0.0217304
0.00764445
0.0238959
0.00859527
0.00764445
-0.00327772
0.00859527
-0.00359695
0.00859527
-0.00359695
0.011868
-0.00496908
0.0238959
0.00859527
0.0429474
0.011868
-0.00103616
0.000446588
-0.0011508
0.00043942
-0.0011508
0.00043942
-0.000822481
0.000383972
0.000446588
3.12359e-05
0.00043942
6.38479e-05
0.00043942
6.38479e-05
0.000383972
5.39999e-05
-0.00406537
0.00227348
-0.00469631
0.00249467
0.00227348
-0.00103616
0.00249467
-0.0011508
0.00249467
-0.0011508
0.00170654
-0.000822481
-0.00469631
0.00249467
-0.00327772
0.00170654
0.107633
0.0139606
0.041789
0.0115706
0.0139606
-0.00406537
0.0115706
-0.00469631
0.0115706
-0.00469631
0.00764445
-0.00327772
0.041789
0.0115706
0.0217304
0.00764446
0.000558616
-0.000165766
5.22931e-06
0.00017953
5.22931e-06
0.00017953
-0.00103616
0.000446588
-0.000165766
-0.000127296
0.00017953
-7.19252e-05
0.00017953
-7.19252e-05
0.000446588
3.12359e-05
0.00347007
-0.00110264
0.000706404
9.47186e-05
-0.00110264
0.000558616
9.47185e-05
5.2293e-06
9.47186e-05
5.22928e-06
0.00227348
-0.00103616
0.000706404
9.47186e-05
-0.00406537
0.00227348
0.0175364
0.00347007
0.0149188
0.000706404
0.0149188
0.000706404
0.0139606
-0.00406537
0.220515
0.0149188
0.107633
0.0139606
-0.000581827
0.000367373
-0.000360304
-0.000230717
-0.000360304
-0.000230717
0.000558616
-0.000165766
0.000367373
8.61708e-05
-0.000230717
-3.47988e-05
-0.000230717
-3.47988e-05
-0.000165766
-0.000127296
-0.00204056
0.0013703
-0.000423805
0.000796605
0.0013703
-0.000581827
0.000796605
-0.000360304
0.000796605
-0.000360304
-0.00110264
0.000558616
-0.000423805
0.000796605
0.00347007
-0.00110264
0.010872
-0.00204056
0.017157
-0.000423805
0.017157
-0.000423805
0.0175364
0.00347007
6.45499e-05
0.000284409
0.00046814
0.00095458
0.00046814
0.00095458
-0.000581827
0.000367373
0.000284409
7.40906e-05
0.00095458
0.000106051
0.00095458
0.000106051
0.000367373
8.61708e-05
-0.000378847
0.000211014
0.00161277
-0.000627102
0.000211014
6.45499e-05
-0.000627102
0.00046814
-0.000627102
0.00046814
0.0013703
-0.000581827
0.00161277
-0.000627102
-0.00204056
0.0013703
0.00130989
-0.000378847
-0.000824625
0.00161277
-0.000824626
0.00161277
0.010872
-0.00204056
0.000121127
9.91017e-05
-5.84492e-05
-3.92995e-05
-5.84492e-05
-3.92995e-05
6.45499e-05
0.000284409
9.91017e-05
6.50748e-05
-3.92995e-05
6.35672e-05
-3.92995e-05
6.35672e-05
0.000284409
7.40906e-05
0.00068805
-0.000401504
-0.000507005
0.000230958
-0.000401504
0.000121127
0.000230958
-5.84492e-05
0.000230958
-5.84492e-05
0.000211014
6.45499e-05
-0.000507005
0.000230958
-0.000378847
0.000211014
0.00351745
-0.00114254
-0.000714006
0.0011686
-0.00114254
0.00068805
0.0011686
-0.000507005
0.0011686
-0.000507005
0.00130989
-0.000378847
-0.000714006
0.0011686
0.0011134
0.00130989
-0.000654892
-0.000206913
-0.000174152
0.000154014
-0.000174152
0.000154014
0.000121127
9.91017e-05
-0.000206913
2.57265e-05
0.000154014
5.37665e-05
0.000154014
5.37665e-05
9.91017e-05
6.50748e-05
-0.00356471
0.00160552
-0.000433417
0.000178621
0.00160552
-0.000654892
0.00017862
-0.000174152
0.000178621
-0.000174152
-0.000401504
0.000121126
-0.000433418
0.000178621
0.00068805
-0.000401504
0.0416441
0.00707753
0.0243009
0.00221096
0.00707754
-0.00356471
0.00221096
-0.000433418
0.00221096
-0.000433418
-0.00114254
0.00068805
0.0243009
0.00221096
0.00351745
-0.00114254
0.00101155
-0.000163581
0.000878105
0.000160181
0.000878105
0.000160181
-0.000654892
-0.000206913
-0.000163581
-2.95992e-05
0.000160181
-1.20178e-05
0.000160181
-1.20178e-05
-0.000206913
2.57265e-05
0.00469025
-0.00217804
0.00502994
-0.00211338
-0.00217804
0.00101155
-0.00211338
0.000878105
-0.00211338
0.000878105
0.00160552
-0.000654892
0.00502994
-0.00211338
-0.00356471
0.00160552
-0.00955566
0.00469025
-0.00785999
0.00502994
-0.00785999
0.00502994
0.00707753
-0.00356471
0.0270753
-0.00785999
0.0416441
0.00707753
-2.59603e-05
0.000422041
-0.000440149
-0.00055418
-0.000440149
-0.00055418
0.00101155
-0.000163581
0.000422041
2.07031e-05
-0.00055418
-6.10692e-06
-0.00055418
-6.10692e-06
-0.000163581
-2.95993e-05
-0.000350255
-2.59604e-05
0.00127425
-0.000440149
0.00127425
-0.000440149
-0.00217804
0.00101155
-0.00296961
0.00127425
0.00469025
-0.00217804
-5.04834e-06
-5.36905e-06
-4.32376e-06
-4.55998e-06
-5.36905e-06
-6.55483e-06
-4.55998e-06
-5.78865e-06
-6.55483e-06
2.54134e-06
-5.78865e-06
3.12035e-06
2.54134e-06
3.92209e-06
3.12035e-06
4.16449e-06
3.92209e-06
-5.45554e-06
4.16449e-06
-4.81269e-06
-5.45554e-06
1.05223e-05
-4.81269e-06
1.11707e-05
1.05223e-05
-2.92742e-06
1.11707e-05
-2.96535e-06
-2.92742e-06
1.67373e-06
-2.96535e-06
1.73413e-06
1.67373e-06
-7.87994e-07
1.73413e-06
-7.95564e-07
-7.87994e-07
4.89896e-07
-7.95564e-07
4.85811e-07
4.89896e-07
-7.49114e-08
4.85811e-07
-7.42252e-08
-7.49114e-08
7.08844e-08
-7.42253e-08
7.09042e-08
7.08844e-08
-4.17582e-08
7.09042e-08
-4.14784e-08
-4.17582e-08
2.37251e-08
-4.14783e-08
2.34593e-08
2.37251e-08
-1.43215e-08
2.34593e-08
-1.4097e-08
-1.43215e-08
9.06553e-09
-1.4097e-08
8.88863e-09
9.06553e-09
9.47005e-09
8.88862e-09
9.08912e-09
-4.32376e-06
-4.55998e-06
9.34095e-06
1.0109e-05
-4.55998e-06
-5.78865e-06
1.0109e-05
1.19565e-05
-5.78865e-06
3.12035e-06
1.19565e-05
-4.03743e-06
3.12035e-06
4.1645e-06
-4.03743e-06
-6.47868e-06
4.1645e-06
-4.81269e-06
-6.47868e-06
1.01662e-05
-4.81269e-06
1.11707e-05
1.01662e-05
-1.62584e-05
1.11707e-05
-2.96535e-06
-1.62584e-05
4.15415e-06
-2.96535e-06
1.73413e-06
4.15415e-06
-2.57807e-06
1.73413e-06
-7.95564e-07
-2.57807e-06
1.21713e-06
-7.95564e-07
4.85811e-07
1.21713e-06
-7.67195e-07
4.85811e-07
-7.42253e-08
-7.67196e-07
1.02116e-07
-7.42254e-08
7.09042e-08
1.02115e-07
-1.05406e-07
7.09042e-08
-4.14783e-08
-1.05406e-07
6.29159e-08
-4.14784e-08
2.34593e-08
6.29159e-08
-3.59134e-08
2.34593e-08
-1.4097e-08
-3.59134e-08
2.17819e-08
-1.4097e-08
8.88862e-09
2.17819e-08
-1.37911e-08
8.88862e-09
9.08912e-09
-1.37911e-08
-1.48009e-08
1.0109e-05
1.19565e-05
-1.93564e-05
-2.2561e-05
1.19565e-05
-4.03743e-06
-2.2561e-05
6.08809e-06
-4.03743e-06
-6.47868e-06
6.08809e-06
1.08957e-05
-6.47868e-06
1.01662e-05
1.08957e-05
-1.91409e-05
1.01662e-05
-1.62584e-05
-1.91409e-05
2.64651e-05
-1.62584e-05
4.15415e-06
2.64651e-05
-6.55047e-06
4.15415e-06
-2.57807e-06
-6.55048e-06
4.22483e-06
-2.57807e-06
1.21713e-06
4.22483e-06
-2.01422e-06
1.21713e-06
-7.67196e-07
-2.01422e-06
1.28711e-06
-7.67195e-07
1.02116e-07
1.28711e-06
-1.57188e-07
1.02116e-07
-1.05406e-07
-1.57188e-07
1.70782e-07
-1.05406e-07
6.29159e-08
1.70782e-07
-1.02912e-07
6.29159e-08
-3.59133e-08
-1.02912e-07
5.90331e-08
-3.59133e-08
2.17819e-08
5.90331e-08
-3.58242e-08
2.17819e-08
-1.37911e-08
-3.58242e-08
2.26745e-08
-1.37911e-08
-1.48009e-08
2.26745e-08
2.49933e-08
-1.93564e-05
-2.2561e-05
3.78621e-05
4.27e-05
-2.2561e-05
6.08809e-06
4.27e-05
-1.0551e-05
6.08809e-06
1.08957e-05
-1.0551e-05
-1.93928e-05
1.08957e-05
-1.91409e-05
-1.93928e-05
3.67572e-05
-1.91409e-05
2.64651e-05
3.67572e-05
-4.68777e-05
2.64651e-05
-6.55047e-06
-4.68777e-05
1.11421e-05
-6.55047e-06
4.22483e-06
1.1142e-05
-7.48389e-06
4.22483e-06
-2.01422e-06
-7.48389e-06
3.57864e-06
-2.01422e-06
1.2871e-06
3.57864e-06
-2.30309e-06
1.28711e-06
-1.57188e-07
-2.30309e-06
2.5987e-07
-1.57188e-07
1.70782e-07
2.59869e-07
-2.95392e-07
1.70782e-07
-1.02912e-07
-2.95392e-07
1.80105e-07
-1.02912e-07
5.90331e-08
1.80105e-07
-1.03271e-07
5.90331e-08
-3.58242e-08
-1.03271e-07
6.30185e-08
-3.58242e-08
2.26745e-08
6.30185e-08
-3.98662e-08
2.26745e-08
2.49933e-08
-3.98662e-08
-4.48725e-08
-1.0551e-05
-1.93928e-05
2.2929e-05
3.76903e-05
-1.93928e-05
3.67572e-05
3.76903e-05
-6.42916e-05
3.67572e-05
-4.68777e-05
-6.42916e-05
9.13501e-05
-4.68777e-05
1.11421e-05
9.13501e-05
-2.14077e-05
1.11421e-05
-7.48389e-06
-2.14077e-05
1.43446e-05
-7.48389e-06
3.57864e-06
1.43446e-05
-6.7422e-06
3.57864e-06
-2.30309e-06
-6.74219e-06
4.28439e-06
-2.30309e-06
2.59869e-07
4.28439e-06
-4.86373e-07
2.59869e-07
-2.95392e-07
-4.86373e-07
5.53991e-07
-2.95392e-07
1.80105e-07
5.53991e-07
-3.35594e-07
1.80105e-07
-1.03271e-07
-3.35594e-07
1.92203e-07
-1.03271e-07
6.30185e-08
1.92203e-07
-1.16345e-07
6.30185e-08
-3.98662e-08
-1.16345e-07
7.34193e-08
-3.98662e-08
-4.48725e-08
7.34193e-08
8.15496e-08
-6.42916e-05
9.13501e-05
0.000122401
-0.000170426
9.13502e-05
-2.14077e-05
-0.000170426
3.88327e-05
-2.14077e-05
1.43446e-05
3.88327e-05
-2.66517e-05
1.43446e-05
-6.74219e-06
-2.66517e-05
1.25066e-05
-6.7422e-06
4.28439e-06
1.25066e-05
-7.95859e-06
4.28439e-06
-4.86373e-07
-7.95859e-06
8.56948e-07
-4.86373e-07
5.5399e-07
8.56947e-07
-1.01019e-06
5.53991e-07
-3.35594e-07
-1.01019e-06
6.13623e-07
-3.35594e-07
1.92203e-07
6.13623e-07
-3.51325e-07
1.92203e-07
-1.16345e-07
-3.51325e-07
2.1307e-07
-1.16345e-07
7.34193e-08
2.1307e-07
-1.34086e-07
7.34193e-08
8.15496e-08
-1.34086e-07
-1.50588e-07
-0.000170426
3.88327e-05
0.000316049
-7.00486e-05
3.88327e-05
-2.66517e-05
-7.00486e-05
4.92272e-05
-2.66517e-05
1.25066e-05
4.92272e-05
-2.29902e-05
1.25066e-05
-7.95859e-06
-2.29902e-05
1.47444e-05
-7.95859e-06
8.56947e-07
1.47444e-05
-1.40612e-06
8.56948e-07
-1.01019e-06
-1.40612e-06
1.80784e-06
-1.01019e-06
6.13623e-07
1.80783e-06
-1.10432e-06
6.13623e-07
-3.51325e-07
-1.10432e-06
6.35921e-07
-3.51325e-07
2.1307e-07
6.35921e-07
-3.86926e-07
2.1307e-07
-1.34086e-07
-3.86926e-07
2.44219e-07
-1.34086e-07
-1.50588e-07
2.44219e-07
2.76395e-07
-7.00486e-05
-5.81785e-05
-0.000254738
0.000457006
-5.81785e-05
4.92272e-05
0.000457006
-0.000279323
4.92272e-05
3.58963e-05
-0.000279323
-2.88012e-05
3.58963e-05
-2.29902e-05
-2.88012e-05
3.49442e-05
-2.29902e-05
-1.68887e-05
3.49442e-05
7.45186e-05
-1.68887e-05
1.47444e-05
7.45186e-05
-5.94414e-05
1.47444e-05
1.39296e-05
-5.94414e-05
-1.78662e-05
1.39296e-05
-1.40612e-06
-1.78662e-05
7.30056e-06
-1.40612e-06
1.80784e-06
7.30056e-06
-2.714e-06
1.80783e-06
-1.10432e-06
-2.714e-06
1.60677e-06
-1.10432e-06
6.35921e-07
1.60677e-06
-9.09516e-07
6.35921e-07
-3.86926e-07
-9.09517e-07
5.60346e-07
-3.86926e-07
2.44219e-07
5.60347e-07
-3.50761e-07
2.44219e-07
2.76395e-07
-3.5076e-07
-5.33453e-07
-0.000254738
0.000457006
-0.000472633
0.000117744
0.000457006
-0.000279323
0.000117744
-1.2588e-05
-0.000279323
-2.88012e-05
-1.25881e-05
0.000123421
-2.88012e-05
3.49442e-05
0.000123421
-5.94332e-05
3.49442e-05
7.45186e-05
-5.94332e-05
-3.93578e-07
7.45186e-05
-5.94414e-05
-3.93578e-07
1.91896e-05
-5.94414e-05
-1.78662e-05
1.91896e-05
6.24776e-05
-1.78662e-05
7.30056e-06
6.24776e-05
3.60825e-06
7.30056e-06
-2.714e-06
3.60824e-06
7.33051e-06
-2.714e-06
1.60677e-06
7.33051e-06
-4.18251e-06
1.60677e-06
-9.09516e-07
-4.18251e-06
2.41045e-06
-9.09516e-07
5.60347e-07
2.41045e-06
-1.43674e-06
5.60346e-07
-3.50761e-07
-1.43674e-06
8.80948e-07
-3.50761e-07
-5.33453e-07
8.80948e-07
9.01642e-07
3.60824e-06
7.33051e-06
-4.8524e-06
-1.44057e-05
7.33051e-06
-4.18251e-06
-1.44057e-05
9.74041e-06
-4.18251e-06
2.41045e-06
9.74041e-06
-5.56597e-06
2.41045e-06
-1.43674e-06
-5.56597e-06
3.28116e-06
-1.43674e-06
8.80948e-07
3.28116e-06
-2.01217e-06
8.80948e-07
9.01642e-07
-2.01217e-06
-1.81265e-06
-4.85239e-06
-1.44057e-05
2.07031e-05
3.42577e-05
-1.44057e-05
9.74041e-06
3.42577e-05
-2.32973e-05
9.7404e-06
-5.56598e-06
-2.32973e-05
1.32521e-05
-5.56597e-06
3.28116e-06
1.32521e-05
-7.82374e-06
3.28116e-06
-2.01217e-06
-7.82374e-06
4.80256e-06
-2.01217e-06
-1.81265e-06
4.80256e-06
4.2252e-06
4.80256e-06
4.2252e-06
-9.91655e-06
-8.21499e-06
-1.2588e-05
0.000123421
-0.000234969
9.4758e-05
0.000123421
-5.94332e-05
9.4758e-05
-4.48051e-05
-5.94332e-05
-3.93584e-07
-4.48051e-05
7.39582e-06
-3.93576e-07
1.91896e-05
7.39581e-06
9.59105e-06
1.91896e-05
6.24776e-05
9.59103e-06
-0.000150428
6.24776e-05
3.60824e-06
-0.000150428
-4.85239e-06
9.47581e-05
-4.48051e-05
0.000639411
-0.00035962
0.00063941
-0.00035962
-0.0014458
0.000588594
-4.48051e-05
7.39582e-06
-0.00035962
-1.06465e-06
7.39578e-06
9.59102e-06
-1.06465e-06
-0.000131103
-1.06459e-06
-0.000131103
-0.000350255
-2.59604e-05
-0.000359621
-1.06464e-06
0.000588594
-0.000350255
9.59103e-06
-0.000150428
-0.000131103
0.000185947
-0.000131103
0.000185947
-2.59604e-05
0.000422041
-0.000150428
-4.85239e-06
0.000185947
1.34787e-05
0.000185947
1.34787e-05
0.000422041
2.07031e-05
0.000588595
-0.000350255
-0.00296961
0.00127425
4.27e-05
-1.0551e-05
-7.67536e-05
2.2929e-05
-6.408e-05
-7.67536e-05
0.000126396
0.00014473
-7.67536e-05
2.2929e-05
0.00014473
-4.14932e-05
2.2929e-05
3.76903e-05
-4.14932e-05
-7.18172e-05
3.76903e-05
-6.42916e-05
-7.18172e-05
0.000122401
0.000108926
0.000126396
-0.000205668
-0.000245042
0.000126396
0.00014473
-0.000245042
-0.000275322
0.00014473
-4.14932e-05
-0.000275322
7.62078e-05
-4.14932e-05
-7.18172e-05
7.62078e-05
0.000135311
-7.18172e-05
0.000122401
0.000135311
-0.00023301
0.000122401
-0.000170426
-0.00023301
0.000316049
-0.000205668
-0.000245042
0.000392143
0.00047504
-0.000245042
-0.000275322
0.00047504
0.000491942
-0.000275322
-0.000121922
0.000491943
0.000245878
-0.000121922
7.62078e-05
0.000245878
4.72056e-05
7.62078e-05
0.000196395
4.72056e-05
-0.000597409
0.000196395
0.000135311
-0.000597409
-0.000305724
0.000135311
-0.000119086
-0.000305724
0.000482928
-0.000119086
-0.00023301
0.000482928
0.000676887
-0.00023301
4.80975e-05
0.000676887
-0.000653857
4.80975e-05
0.000316049
-0.000653857
-0.000194399
0.000316049
0.000173589
-0.000194399
-0.000188782
0.000173589
-7.00486e-05
-0.000188782
-0.000254738
0.000529412
0.000430626
-0.000971895
-0.000796389
0.000430626
0.000392143
-0.000796389
-0.00075002
0.000392143
0.000408062
-0.00075002
-0.000740461
0.000408062
0.00047504
-0.000740461
-0.000871059
0.00047504
0.000557949
-0.000871058
-0.000999917
0.000557949
0.000491942
-0.000999917
-0.00104369
0.000491942
0.000245878
-0.00104369
-0.000409599
0.000245878
4.72056e-05
-0.000409599
0.000406601
4.72055e-05
-0.000597409
0.000406601
0.000342676
-0.000597409
-0.000305724
0.000342676
0.000347981
-0.000305724
0.000482928
0.000347981
-3.67386e-05
0.000482928
0.000676887
-3.67386e-05
-0.000407904
0.000676887
-0.000653857
-0.000407904
-0.000319879
-0.000653857
-0.000194399
-0.000319879
0.0011468
-0.000194399
-0.000188782
0.0011468
0.000588524
-0.000188782
-0.000254738
0.000588524
-0.000472633
-0.000971895
-0.000796389
0.00149576
0.00131336
-0.000796389
-0.00075002
0.00131336
0.00116564
-0.00075002
-0.000740461
0.00116564
0.00117952
-0.000740461
-0.000871058
0.00117952
0.00132102
-0.000871059
-0.000999918
0.00132102
0.00169725
-0.000999918
-0.00104369
0.00169725
0.00159661
0.606537
0.295491
0.45271
0.164893
0.295491
0.0416441
0.164893
0.0243009
0.679058
0.606537
0.632814
0.45271
-0.00104369
-0.000409599
0.00159661
0.000877903
-0.000409599
0.000406601
0.000877902
6.37038e-05
0.000406601
0.000342676
6.37038e-05
-7.05178e-05
0.000342677
0.000347981
-7.05179e-05
-1.73439e-05
0.000347981
-3.67386e-05
-1.73441e-05
0.000190218
-3.67386e-05
-0.000407904
0.000190218
3.65278e-05
-0.000407904
-0.000319879
3.65278e-05
-0.000752648
-0.000319879
0.0011468
-0.000752648
0.000768559
0.0011468
0.000588524
0.00076856
0.000288975
0.000588524
-0.000472633
0.000288974
-0.000614937
-0.000472633
0.000117744
-0.000614937
0.000464847
0.000117744
-1.2588e-05
0.000464847
-0.00023497
0.0131522
-0.00955566
0.0270753
-0.00785999
0.262578
0.00823245
0.579635
0.139282
0.00823246
0.0131522
0.139282
0.0270753
0.139282
0.0270753
0.295491
0.0416441
0.579635
0.139282
0.606537
0.295491
0.62581
0.604507
0.672088
0.689703
0.604507
0.262578
0.689703
0.579635
0.689703
0.579635
0.679058
0.606537
0.672088
0.689703
0.707443
0.679058
0.388499
0.471402
0.739431
0.713882
0.471402
0.62581
0.713882
0.672088
0.713882
0.672088
0.699071
0.707443
0.739431
0.713882
0.764793
0.699071
0.0309744
0.12675
0.33577
0.587058
0.12675
0.388499
0.587058
0.739431
0.587058
0.739431
0.896185
0.764793
0.33577
0.587058
0.89481
0.896185
0.0617036
0.0216417
0.571293
0.362473
0.0216417
0.0309744
0.362473
0.33577
0.362473
0.33577
0.917917
0.89481
0.571293
0.362473
0.966871
0.917917
0.103327
0.114453
0.699118
0.726233
0.114453
0.0617036
0.726233
0.571293
0.726233
0.571293
0.985237
0.966871
0.699118
0.726233
0.98333
0.985237
0.0257064
0.0512157
0.392894
0.530718
0.0512157
0.103327
0.530718
0.699118
0.530718
0.699118
0.96077
0.98333