# vtk DataFile Version 2.0
Hex test
ASCII
DATASET UNSTRUCTURED_GRID
POINTS 10420 float
24 30 0
24 32 0
26 30 0
26 32 0
24 32 0
24 34 0
26 32 0
26 34 0
24 34 0
24 36 0
26 34 0
26 36 0
26 24 0
26 26 0
28 24 0
28 26 0
26 26 0
26 28 0
28 26 0
28 28 0
26 28 0
26 30 0
28 28 0
28 30 0
26 30 0
26 32 0
28 30 0
28 32 0
26 32 0
26 34 0
28 32 0
28 34 0
26 34 0
26 36 0
28 34 0
28 36 0
28 24 0
28 26 0
30 24 0
30 26 0
28 26 0
28 28 0
30 26 0
30 28 0
28 28 0
28 30 0
30 28 0
30 30 0
28 30 0
28 32 0
30 30 0
30 32 0
28 32 0
28 34 0
30 32 0
30 34 0
28 34 0
28 35 0
30 34 0
30 35 0
28 35 0
28 36 0
30 35 0
30 36 0
30 24 0
30 26 0
32 24 0
32 26 0
30 26 0
30 28 0
32 26 0
32 28 0
30 28 0
30 30 0
32 28 0
32 30 0
30 30 0
30 32 0
32 30 0
32 32 0
30 32 0
30 33 0
32 32 0
32 33 0
30 33 0
30 34 0
32 33 0
32 34 0
30 34 0
30 35 0
32 34 0
32 35 0
30 35 0
30 36 0
32 35 0
32 36 0
32 24 0
32 25 0
34 24 0
34 25 0
32 25 0
32 26 0
34 25 0
34 26 0
32 26 0
32 27 0
34 26 0
34 27 0
32 27 0
32 28 0
34 27 0
34 28 0
32 28 0
32 29 0
34 28 0
34 29 0
32 29 0
32 30 0
34 29 0
34 30 0
32 30 0
32 31 0
34 30 0
34 31 0
32 31 0
32 32 0
34 31 0
34 32 0
32 32 0
32 33 0
34 32 0
34 33 0
32 33 0
32 34 0
34 33 0
34 34 0
34 24 0
34 25 0
36 24 0
36 25 0
34 25 0
34 26 0
36 25 0
36 26 0
34 26 0
34 27 0
36 26 0
36 27 0
34 27 0
34 28 0
36 27 0
36 28 0
34 28 0
34 29 0
36 28 0
36 29 0
34 29 0
34 30 0
36 29 0
36 30 0
34 30 0
34 31 0
36 30 0
36 31 0
34 31 0
34 32 0
36 31 0
36 32 0
40 36 0
40 37 0
41 36 0
41 37 0
40 34 0
40 35 0
41 34 0
41 35 0
40 35 0
40 36 0
41 35 0
41 36 0
40 32 0
40 33 0
41 32 0
41 33 0
40 33 0
40 34 0
41 33 0
41 34 0
40 30 0
40 31 0
41 30 0
41 31 0
40 31 0
40 32 0
41 31 0
41 32 0
38 38 0
38 39 0
39 38 0
39 39 0
38 39 0
38 40 0
39 39 0
39 40 0
39 38 0
39 39 0
40 38 0
40 39 0
38 36 0
38 37 0
39 36 0
39 37 0
38 37 0
38 38 0
39 37 0
39 38 0
39 37 0
39 38 0
40 37 0
40 38 0
39 36 0
39 37 0
40 36 0
40 37 0
38 34 0
38 35 0
39 34 0
39 35 0
38 35 0
38 36 0
39 35 0
39 36 0
39 35 0
39 36 0
40 35 0
40 36 0
39 34 0
39 35 0
40 34 0
40 35 0
38 32 0
38 33 0
39 32 0
39 33 0
38 33 0
38 34 0
39 33 0
39 34 0
39 33 0
39 34 0
40 33 0
40 34 0
39 32 0
39 33 0
40 32 0
40 33 0
38 30 0
38 31 0
39 30 0
39 31 0
38 31 0
38 32 0
39 31 0
39 32 0
39 31 0
39 32 0
40 31 0
40 32 0
39 30 0
39 31 0
40 30 0
40 31 0
38 28 0
38 29 0
39 28 0
39 29 0
38 29 0
38 30 0
39 29 0
39 30 0
39 29 0
39 30 0
40 29 0
40 30 0
39 28 0
39 29 0
40 28 0
40 29 0
38 26 0
38 27 0
39 26 0
39 27 0
38 27 0
38 28 0
39 27 0
39 28 0
39 27 0
39 28 0
40 27 0
40 28 0
38 25 0
38 26 0
39 25 0
39 26 0
36 40 0
36 41 0
37 40 0
37 41 0
36 38 0
36 39 0
37 38 0
37 39 0
36 39 0
36 40 0
37 39 0
37 40 0
37 39 0
37 40 0
38 39 0
38 40 0
37 38 0
37 39 0
38 38 0
38 39 0
36 36 0
36 37 0
37 36 0
37 37 0
36 37 0
36 38 0
37 37 0
37 38 0
37 37 0
37 38 0
38 37 0
38 38 0
37 36 0
37 37 0
38 36 0
38 37 0
36 34 0
36 35 0
37 34 0
37 35 0
36 35 0
36 36 0
37 35 0
37 36 0
37 35 0
37 36 0
38 35 0
38 36 0
37 34 0
37 35 0
38 34 0
38 35 0
36 32 0
36 33 0
37 32 0
37 33 0
37 32 0
37 33 0
38 32 0
38 33 0
36 33 0
36 34 0
37 33 0
37 34 0
37 33 0
37 34 0
38 33 0
38 34 0
36 30 0
36 31 0
38 30 0
38 31 0
36 31 0
36 32 0
38 31 0
38 32 0
36 28 0
36 29 0
38 28 0
38 29 0
36 29 0
36 30 0
38 29 0
38 30 0
36 26 0
36 27 0
38 26 0
38 27 0
36 27 0
36 28 0
38 27 0
38 28 0
36 24 0
36 25 0
38 24 0
38 25 0
36 25 0
36 26 0
38 25 0
38 26 0
34 40 0
34 41 0
35 40 0
35 41 0
34 41 0
34 42 0
35 41 0
35 42 0
35 41 0
35 42 0
36 41 0
36 42 0
35 40 0
35 41 0
36 40 0
36 41 0
34 38 0
34 39 0
35 38 0
35 39 0
34 39 0
34 40 0
35 39 0
35 40 0
35 39 0
35 40 0
36 39 0
36 40 0
35 38 0
35 39 0
36 38 0
36 39 0
34 36 0
34 37 0
35 36 0
35 37 0
34 37 0
34 38 0
35 37 0
35 38 0
35 37 0
35 38 0
36 37 0
36 38 0
35 36 0
35 37 0
36 36 0
36 37 0
34 34 0
34 35 0
35 34 0
35 35 0
35 34 0
35 35 0
36 34 0
36 35 0
34 35 0
34 36 0
35 35 0
35 36 0
35 35 0
35 36 0
36 35 0
36 36 0
34 32 0
34 33 0
36 32 0
36 33 0
34 33 0
34 34 0
36 33 0
36 34 0
32 40 0
32 41 0
33 40 0
33 41 0
32 41 0
32 42 0
33 41 0
33 42 0
33 41 0
33 42 0
34 41 0
34 42 0
33 40 0
33 41 0
34 40 0
34 41 0
32 38 0
32 39 0
33 38 0
33 39 0
32 39 0
32 40 0
33 39 0
33 40 0
33 39 0
33 40 0
34 39 0
34 40 0
33 38 0
33 39 0
34 38 0
34 39 0
32 36 0
32 37 0
33 36 0
33 37 0
33 36 0
33 37 0
34 36 0
34 37 0
32 37 0
32 38 0
33 37 0
33 38 0
33 37 0
33 38 0
34 37 0
34 38 0
32 34 0
32 35 0
34 34 0
34 35 0
32 35 0
32 36 0
34 35 0
34 36 0
30 40 0
30 41 0
31 40 0
31 41 0
31 41 0
31 42 0
32 41 0
32 42 0
31 40 0
31 41 0
32 40 0
32 41 0
30 38 0
30 39 0
31 38 0
31 39 0
30 39 0
30 40 0
31 39 0
31 40 0
31 39 0
31 40 0
32 39 0
32 40 0
31 38 0
31 39 0
32 38 0
32 39 0
30 36 0
30 37 0
31 36 0
31 37 0
31 36 0
31 37 0
32 36 0
32 37 0
30 37 0
30 38 0
31 37 0
31 38 0
31 37 0
31 38 0
32 37 0
32 38 0
29 40 0
29 41 0
30 40 0
30 41 0
28 38 0
28 39 0
29 38 0
29 39 0
28 39 0
28 40 0
29 39 0
29 40 0
29 39 0
29 40 0
30 39 0
30 40 0
29 38 0
29 39 0
30 38 0
30 39 0
28 36 0
28 37 0
29 36 0
29 37 0
29 36 0
29 37 0
30 36 0
30 37 0
28 37 0
28 38 0
29 37 0
29 38 0
29 37 0
29 38 0
30 37 0
30 38 0
26 38 0
26 39 0
27 38 0
27 39 0
27 38 0
27 39 0
28 38 0
28 39 0
26 36 0
26 37 0
27 36 0
27 37 0
27 36 0
27 37 0
28 36 0
28 37 0
26 37 0
26 38 0
27 37 0
27 38 0
27 37 0
27 38 0
28 37 0
28 38 0
24 36 0
24 37 0
25 36 0
25 37 0
25 36 0
25 37 0
26 36 0
26 37 0
46 22 0
46 23 0
48 22 0
48 23 0
46 23 0
46 24 0
48 23 0
48 24 0
46 24 0
46 25 0
48 24 0
48 25 0
46 25 0
46 26 0
48 25 0
48 26 0
46 26 0
46 27 0
48 26 0
48 27 0
46 27 0
46 28 0
48 27 0
48 28 0
46 28 0
46 29 0
48 28 0
48 29 0
46 29 0
46 30 0
48 29 0
48 30 0
46 30 0
46 31 0
48 30 0
48 31 0
46 31 0
46 32 0
48 31 0
48 32 0
46 32 0
46 33 0
48 32 0
48 33 0
46 33 0
46 34 0
48 33 0
48 34 0
46 34 0
46 35 0
48 34 0
48 35 0
46 35 0
46 36 0
48 35 0
48 36 0
46 36 0
46 37 0
48 36 0
48 37 0
46 37 0
46 38 0
48 37 0
48 38 0
46 38 0
46 39 0
48 38 0
48 39 0
46 39 0
46 40 0
48 39 0
48 40 0
48 22 0
48 23 0
50 22 0
50 23 0
48 23 0
48 24 0
50 23 0
50 24 0
48 24 0
48 25 0
50 24 0
50 25 0
48 25 0
48 26 0
50 25 0
50 26 0
48 26 0
48 27 0
50 26 0
50 27 0
48 27 0
48 28 0
50 27 0
50 28 0
48 28 0
48 29 0
50 28 0
50 29 0
48 29 0
48 30 0
50 29 0
50 30 0
48 30 0
48 31 0
50 30 0
50 31 0
48 31 0
48 32 0
50 31 0
50 32 0
48 32 0
48 33 0
50 32 0
50 33 0
48 33 0
48 34 0
50 33 0
50 34 0
48 34 0
48 35 0
50 34 0
50 35 0
48 35 0
48 36 0
50 35 0
50 36 0
48 36 0
48 37 0
50 36 0
50 37 0
48 37 0
48 38 0
50 37 0
50 38 0
48 38 0
48 39 0
50 38 0
50 39 0
48 39 0
48 40 0
50 39 0
50 40 0
50 22 0
50 24 0
52 22 0
52 24 0
50 24 0
50 26 0
52 24 0
52 26 0
50 26 0
50 28 0
52 26 0
52 28 0
50 28 0
50 30 0
52 28 0
52 30 0
50 30 0
50 32 0
52 30 0
52 32 0
50 32 0
50 34 0
52 32 0
52 34 0
50 34 0
50 36 0
52 34 0
52 36 0
50 36 0
50 38 0
52 36 0
52 38 0
50 38 0
50 40 0
52 38 0
52 40 0
52 22 0
52 24 0
54 22 0
54 24 0
52 24 0
52 26 0
54 24 0
54 26 0
52 26 0
52 28 0
54 26 0
54 28 0
52 28 0
52 30 0
54 28 0
54 30 0
52 30 0
52 32 0
54 30 0
54 32 0
52 32 0
52 34 0
54 32 0
54 34 0
52 34 0
52 36 0
54 34 0
54 36 0
52 36 0
52 38 0
54 36 0
54 38 0
52 38 0
52 40 0
54 38 0
54 40 0
54 22 0
54 24 0
56.1667 22 0
56.1667 24 0
54 24 0
54 26 0
56.1667 24 0
56.1667 26 0
54 26 0
54 28 0
56.1667 26 0
56.1667 28 0
54 28 0
54 30 0
56.1667 28 0
56.1667 30 0
54 30 0
54 32 0
56.1667 30 0
56.1667 32 0
54 32 0
54 34 0
56.1667 32 0
56.1667 34 0
54 34 0
54 36 0
56.1667 34 0
56.1667 36 0
54 36 0
54 38 0
56.1667 36 0
56.1667 38 0
54 38 0
54 40 0
56.1667 38 0
56.1667 40 0
56.1667 20 0
56.1667 22 0
60 20 0
60 22 0
56.1667 22 0
56.1667 24 0
60 22 0
60 24 0
56.1667 24 0
56.1667 26 0
60 24 0
60 26 0
56.1667 26 0
56.1667 28 0
60 26 0
60 28 0
56.1667 28 0
56.1667 30 0
60 28 0
60 30 0
56.1667 30 0
56.1667 32 0
60 30 0
60 32 0
56.1667 32 0
56.1667 34 0
60 32 0
60 34 0
56.1667 34 0
56.1667 36 0
60 34 0
60 36 0
56.1667 36 0
56.1667 38 0
60 36 0
60 38 0
56.1667 38 0
56.1667 40 0
60 38 0
60 40 0
44 38 0
44 39 0
46 38 0
46 39 0
44 39 0
44 40 0
46 39 0
46 40 0
44 36 0
44 37 0
46 36 0
46 37 0
44 37 0
44 38 0
46 37 0
46 38 0
44 34 0
44 35 0
46 34 0
46 35 0
44 35 0
44 36 0
46 35 0
46 36 0
44 32 0
44 33 0
46 32 0
46 33 0
44 33 0
44 34 0
46 33 0
46 34 0
44 30 0
44 31 0
46 30 0
46 31 0
44 31 0
44 32 0
46 31 0
46 32 0
44 28 0
44 29 0
46 28 0
46 29 0
44 29 0
44 30 0
46 29 0
46 30 0
44 26 0
44 27 0
46 26 0
46 27 0
44 27 0
44 28 0
46 27 0
46 28 0
44 24 0
44 25 0
46 24 0
46 25 0
44 25 0
44 26 0
46 25 0
46 26 0
44 22 0
44 23 0
46 22 0
46 23 0
44 23 0
44 24 0
46 23 0
46 24 0
44 21 0
44 22 0
45 21 0
45 22 0
45 21 0
45 22 0
46 21 0
46 22 0
42 38 0
42 39 0
43 38 0
43 39 0
43 38 0
43 39 0
44 38 0
44 39 0
42 36 0
42 37 0
43 36 0
43 37 0
42 37 0
42 38 0
43 37 0
43 38 0
43 37 0
43 38 0
44 37 0
44 38 0
43 36 0
43 37 0
44 36 0
44 37 0
42 34 0
42 35 0
43 34 0
43 35 0
42 35 0
42 36 0
43 35 0
43 36 0
43 35 0
43 36 0
44 35 0
44 36 0
43 34 0
43 35 0
44 34 0
44 35 0
42 32 0
42 33 0
43 32 0
43 33 0
42 33 0
42 34 0
43 33 0
43 34 0
43 33 0
43 34 0
44 33 0
44 34 0
43 32 0
43 33 0
44 32 0
44 33 0
42 30 0
42 31 0
43 30 0
43 31 0
42 31 0
42 32 0
43 31 0
43 32 0
43 31 0
43 32 0
44 31 0
44 32 0
43 30 0
43 31 0
44 30 0
44 31 0
42 28 0
42 29 0
43 28 0
43 29 0
42 29 0
42 30 0
43 29 0
43 30 0
43 29 0
43 30 0
44 29 0
44 30 0
43 28 0
43 29 0
44 28 0
44 29 0
42 26 0
42 27 0
43 26 0
43 27 0
42 27 0
42 28 0
43 27 0
43 28 0
43 27 0
43 28 0
44 27 0
44 28 0
43 26 0
43 27 0
44 26 0
44 27 0
42 24 0
42 25 0
43 24 0
43 25 0
42 25 0
42 26 0
43 25 0
43 26 0
43 25 0
43 26 0
44 25 0
44 26 0
43 24 0
43 25 0
44 24 0
44 25 0
42 22 0
42 23 0
43 22 0
43 23 0
42 23 0
42 24 0
43 23 0
43 24 0
43 23 0
43 24 0
44 23 0
44 24 0
43 22 0
43 23 0
44 22 0
44 23 0
42 21 0
42 22 0
43 21 0
43 22 0
43 21 0
43 22 0
44 21 0
44 22 0
41 38 0
41 39 0
42 38 0
42 39 0
40 37 0
40 38 0
41 37 0
41 38 0
41 37 0
41 38 0
42 37 0
42 38 0
41 36 0
41 37 0
42 36 0
42 37 0
41 35 0
41 36 0
42 35 0
42 36 0
41 34 0
41 35 0
42 34 0
42 35 0
41 33 0
41 34 0
42 33 0
42 34 0
41 32 0
41 33 0
42 32 0
42 33 0
41 31 0
41 32 0
42 31 0
42 32 0
41 30 0
41 31 0
42 30 0
42 31 0
40 28 0
40 29 0
41 28 0
41 29 0
40 29 0
40 30 0
41 29 0
41 30 0
41 29 0
41 30 0
42 29 0
42 30 0
41 28 0
41 29 0
42 28 0
[...]
POINT_DATA 10420
SCALARS phi float 1
LOOKUP_TABLE default
0.999332
1.00089
1.00018
1.00039
1.00089
0.999023
1.00039
0.998778
0.999023
0.99892
0.998778
0.999472
1.00039
1.00034
0.999205
0.999206
1.00034
1.00049
0.999206
0.999255
1.00049
1.00018
0.999255
0.999213
1.00018
1.00039
0.999213
0.999948
1.00039
0.998778
0.999948
1.00116
0.998778
0.999472
1.00116
1.00015
0.999205
0.999206
1.00147
1.00157
0.999206
0.999255
1.00157
1.00125
0.999255
0.999213
1.00125
1.00161
0.999213
0.999948
1.00161
0.999624
0.999948
1.00116
0.999624
0.99827
1.00116
1.00124
0.99827
0.995216
1.00124
1.00015
0.995216
0.999583
1.00147
1.00157
0.997528
0.997004
1.00157
1.00125
0.997004
0.998325
1.00125
1.00161
0.998325
0.996518
1.00161
0.999624
0.996518
1.00066
0.999624
0.999536
1.00066
0.999314
0.999536
0.99827
0.999314
1.00511
0.99827
0.995216
1.00511
1.00656
0.995216
0.999583
1.00656
0.996541
0.997528
0.997103
1.00471
1.00452
0.997103
0.997004
1.00452
1.00453
0.997004
0.997949
1.00453
1.00486
0.997949
0.998325
1.00486
1.0054
0.998325
0.996925
1.0054
1.00602
0.996925
0.996518
1.00602
1.00618
0.996518
0.999231
1.00618
1.00466
0.999231
1.00066
1.00466
0.99986
1.00066
0.999314
0.99986
0.995827
0.999314
1.00511
0.995827
0.99526
1.00471
1.00452
0.993661
0.993649
1.00452
1.00453
0.993649
0.993678
1.00453
1.00486
0.993677
0.99369
1.00486
1.0054
0.99369
0.993416
1.0054
1.00602
0.993416
0.992866
1.00602
1.00618
0.992866
0.993307
1.00618
1.00466
0.993307
0.994647
1.00466
0.99986
0.994647
0.999989
0.000720994
-0.000619254
-0.000346618
0.000312879
-0.00534489
-0.000123337
0.00295349
0.000148498
-0.000123337
0.000720994
0.000148498
-0.000346618
0.012701
0.0144173
-0.00463245
-0.00621245
0.0144173
-0.0053449
-0.00621245
0.00295349
0.00849834
0.0091824
-0.00103693
-0.00184231
0.0091824
0.012701
-0.00184231
-0.00463245
0.00049211
-0.000108964
-0.00030393
0.00013264
-0.000108963
5.21563e-05
0.00013264
-4.69381e-05
-0.000303929
0.00013264
0.000163346
-4.70349e-05
0.00532218
-0.00150066
-0.00108685
0.00130823
-0.00150066
0.00049211
0.00130823
-0.00030393
0.00130823
-0.00030393
-0.000619254
0.000163346
-0.00108685
0.00130823
0.000720994
-0.000619254
0.102594
0.0269526
0.0197931
0.00217623
0.0269526
0.00532218
0.00217623
-0.00108685
0.00217623
-0.00108685
-0.000123337
0.000720994
0.0197931
0.00217623
-0.00534489
-0.000123337
0.657641
0.427744
0.0809473
0.0129636
0.427744
0.102594
0.0129636
0.0197931
0.0129636
0.0197931
0.0144173
-0.0053449
0.0809473
0.0129636
0.012701
0.0144173
0.741795
0.724978
0.146906
0.132728
0.724978
0.657641
0.132728
0.0809473
0.132728
0.0809473
0.0091824
0.012701
0.146906
0.132728
0.00849834
0.0091824
0.741573
0.742944
0.147022
0.147669
0.742944
0.741795
0.147669
0.146906
0.147669
0.146906
0.00832146
0.00849834
0.147022
0.147669
0.00871021
0.00832146
0.7408
0.740408
0.147713
0.146886
0.740408
0.741573
0.146886
0.147022
0.146886
0.147022
0.00830932
0.00871021
0.741245
0.7408
0.14731
0.147713
0.000957742
-0.000430072
-0.000345688
0.000204018
0.0142242
-0.000620063
-0.000756461
0.0010219
-0.000620062
0.000957742
0.0010219
-0.000345688
0.0010219
-0.000345688
-0.000108964
5.21563e-05
-0.000756461
0.0010219
0.00049211
-0.000108963
0.323701
0.0570245
0.034305
0.0123254
0.0570245
0.0142242
0.0123254
-0.000756461
0.0123254
-0.000756461
-0.00150066
0.00049211
0.034305
0.0123254
0.00532218
-0.00150066
0.949036
0.729513
0.678818
0.238899
0.729513
0.323701
0.238899
0.034305
0.238899
0.034305
0.0269526
0.00532218
0.678818
0.238899
0.102594
0.0269526
0.999989
0.997296
0.967386
0.855217
0.967386
0.855217
0.657641
0.427744
0.997296
0.949036
0.855217
0.678818
0.855217
0.678818
0.427744
0.102594
0.993307
0.994647
0.741795
0.724978
0.994647
0.999989
0.724978
0.657641
0.993416
0.992866
0.741573
0.742944
0.992866
0.993307
0.742944
0.741795
0.993677
0.99369
0.7408
0.740408
0.99369
0.993416
0.740408
0.741573
0.993661
0.993649
0.742651
0.741245
0.993649
0.993678
0.741245
0.7408
0.00190476
-2.51414e-05
-0.00207735
0.00141571
-2.51414e-05
0.000151457
0.00141571
-0.000691348
0.00141571
-0.000691348
-0.000430072
0.000227832
-0.00207735
0.00141571
0.000957742
-0.000430072
0.230996
0.0193452
0.0551435
0.0109452
0.0193452
0.00190476
0.0109452
-0.00207735
0.0109452
-0.00207735
-0.000620063
0.000957742
0.0551435
0.0109452
0.0142242
-0.000620063
0.973697
0.798159
0.829116
0.410087
0.798159
0.230995
0.410087
0.0551435
0.410087
0.0551435
0.0570245
0.0142242
0.829116
0.410087
0.323701
0.0570245
0.99526
0.991889
1.00199
1.00017
1.00199
1.00017
0.949036
0.729513
0.991889
0.973697
1.00017
0.829116
1.00017
0.829116
0.729513
0.323701
0.99986
0.995827
0.999989
0.997296
0.995827
0.99526
0.997296
0.949036
0.0392329
0.00507393
0.0146388
-0.00287736
0.00507393
0.000201943
-0.00287736
0.00214495
-0.00287736
0.00214495
-2.51414e-05
0.000151457
0.0146388
-0.00287736
0.00190476
-2.51414e-05
0.782515
0.26027
0.472356
0.055446
0.26027
0.0392328
0.055446
0.0146388
0.055446
0.0146388
0.0193452
0.00190476
0.472356
0.055446
0.230996
0.0193452
0.996541
0.973978
0.991973
0.946884
0.991973
0.946884
0.973697
0.798159
0.973978
0.782515
0.946884
0.472356
0.946884
0.472356
0.798159
0.230996
1.00511
1.00656
0.99526
0.991889
1.00656
0.996541
0.991889
0.973697
0.341423
0.0224162
0.168458
0.0179781
0.0179781
-0.000620714
0.00507393
0.000201943
0.168458
0.0179781
0.0392329
0.00507393
0.981478
0.90626
0.958031
0.710694
0.90626
0.341423
0.710694
0.168458
0.710694
0.168458
0.26027
0.0392328
0.958031
0.710694
0.782515
0.26027
0.999583
1.00522
0.998372
0.988406
0.998372
0.988406
0.996541
0.973978
1.00522
0.981478
0.988406
0.958031
0.988406
0.958031
0.973978
0.782515
0.300305
0.0187091
0.341423
0.0224162
0.987166
0.79875
0.986304
0.896547
0.79875
0.16386
0.896547
0.300305
0.896547
0.300305
0.90626
0.341423
0.986304
0.896547
0.981478
0.90626
1.00015
0.997477
1.00013
1.00531
1.00013
1.00531
0.999583
1.00522
0.997477
0.987166
1.00531
0.986304
1.00531
0.986304
1.00522
0.981478
0.982637
0.69152
0.984355
0.715614
0.984355
0.715614
0.987166
0.79875
0.999472
0.997386
0.999864
0.997114
0.999864
0.997114
1.00015
0.997477
0.997386
0.982637
0.997114
0.984355
0.997114
0.984355
0.997477
0.987166
0.99892
0.991897
0.999153
0.994399
0.999153
0.994399
0.999472
0.997386
-4.81148e-05
-4.14278e-05
1.9504e-05
3.6049e-05
-4.14278e-05
-4.64125e-05
3.6049e-05
3.52045e-05
-4.64125e-05
-4.58735e-05
3.52045e-05
2.16362e-05
-4.58735e-05
-4.84775e-05
2.16362e-05
2.41108e-05
-4.84775e-05
-6.11813e-05
2.41108e-05
5.88948e-05
-6.11813e-05
-6.25259e-05
5.88948e-05
6.13367e-05
-6.25259e-05
-3.40385e-05
6.13367e-05
2.90594e-06
-3.40385e-05
-3.58094e-05
2.90594e-06
3.64247e-06
-3.58094e-05
-0.000116342
3.64248e-06
0.000145042
-0.000116342
-0.000220356
0.000145042
0.000181381
-0.000220356
-0.000200303
0.000181381
6.92298e-06
-0.000200303
6.72963e-05
6.92298e-06
5.31081e-05
6.72963e-05
2.07272e-05
5.31081e-05
-4.50992e-05
2.07272e-05
-8.58257e-06
-4.50992e-05
-5.61698e-06
-8.58257e-06
1.54692e-06
-5.61698e-06
1.7507e-05
1.54692e-06
2.1234e-06
1.7507e-05
-5.92661e-06
2.1234e-06
-2.84329e-06
-5.92661e-06
-6.68236e-06
-2.84329e-06
-5.3157e-06
-6.68236e-06
6.60488e-06
1.9504e-05
3.6049e-05
-2.16104e-05
-2.38426e-05
3.6049e-05
3.52045e-05
-2.38426e-05
-1.50487e-05
3.52045e-05
2.16362e-05
-1.50487e-05
-1.22088e-05
2.16362e-05
2.41108e-05
-1.22088e-05
-1.75925e-05
2.41108e-05
5.88948e-05
-1.75925e-05
-2.69901e-05
5.88948e-05
6.13367e-05
-2.69901e-05
-2.49834e-05
6.13367e-05
2.90594e-06
-2.49834e-05
-4.6531e-06
2.90594e-06
3.64247e-06
-4.6531e-06
-4.28402e-06
3.64247e-06
0.000145042
-4.28402e-06
-5.13116e-05
0.000145042
0.000181381
-5.13116e-05
-8.45684e-05
0.000181381
6.92298e-06
-8.45684e-05
-4.81207e-05
6.92298e-06
5.31081e-05
-4.81207e-05
4.42376e-06
5.31081e-05
-4.50992e-05
4.42376e-06
1.27521e-05
-4.50992e-05
-5.61698e-06
1.27521e-05
-7.31426e-07
-5.61698e-06
1.7507e-05
-7.31428e-07
-2.64099e-06
1.7507e-05
-5.92661e-06
-2.64099e-06
1.62065e-06
-5.92661e-06
-6.68236e-06
1.62065e-06
6.71261e-07
-6.68236e-06
6.60488e-06
6.71261e-07
-2.00077e-06
-2.16104e-05
-1.50487e-05
9.95847e-06
8.82426e-06
-1.50487e-05
-1.75925e-05
8.82426e-06
9.24274e-06
-1.75925e-05
-2.49834e-05
9.24274e-06
1.41954e-05
-2.49834e-05
-4.28402e-06
1.41954e-05
4.6467e-06
-4.28402e-06
-8.45684e-05
4.6467e-06
4.65194e-05
-8.45684e-05
4.42376e-06
4.65194e-05
-2.86301e-06
4.42376e-06
-7.31428e-07
-2.86301e-06
4.63598e-07
-7.31427e-07
1.62065e-06
4.63598e-07
-8.43764e-07
1.62065e-06
-2.00077e-06
-8.43764e-07
1.04284e-06
9.95847e-06
8.82426e-06
-5.69533e-06
-5.15622e-06
8.82426e-06
9.24274e-06
-5.15622e-06
-5.31289e-06
9.24274e-06
1.41954e-05
-5.31288e-06
-8.11869e-06
1.41954e-05
4.64669e-06
-8.11869e-06
-2.50575e-06
4.6467e-06
4.65194e-05
-2.50575e-06
-2.65668e-05
4.65194e-05
-2.86301e-06
-2.65668e-05
1.52914e-06
-2.86301e-06
4.63598e-07
1.52914e-06
-2.53601e-07
4.63598e-07
-8.43764e-07
-2.53601e-07
4.68307e-07
-8.43764e-07
1.04284e-06
4.68307e-07
-5.89974e-07
-5.69533e-06
-5.15622e-06
3.48808e-06
3.15485e-06
-5.15622e-06
-5.31289e-06
3.15485e-06
3.27024e-06
-5.31288e-06
-8.11869e-06
3.27024e-06
4.96176e-06
-8.11869e-06
-2.50575e-06
4.96176e-06
1.42576e-06
-2.50575e-06
-2.65668e-05
1.42576e-06
1.59917e-05
-2.65668e-05
1.52913e-06
1.59917e-05
-7.65754e-07
1.52913e-06
-2.53601e-07
-7.65753e-07
1.64853e-07
-2.53601e-07
4.68307e-07
1.64853e-07
-2.60118e-07
4.68307e-07
-5.89974e-07
-2.60118e-07
3.48121e-07
-1.86442e-06
3.48808e-06
-1.65611e-06
3.0858e-06
3.48808e-06
3.15485e-06
3.0858e-06
2.78972e-06
3.15485e-06
3.27024e-06
2.78972e-06
2.89971e-06
3.27024e-06
4.96176e-06
2.89971e-06
4.32729e-06
4.96176e-06
1.42576e-06
4.32729e-06
1.47213e-06
1.42576e-06
1.59917e-05
1.47213e-06
1.39732e-05
1.59917e-05
-7.65754e-07
1.39732e-05
-8.34901e-07
-7.65753e-07
1.64853e-07
-8.34901e-07
1.4845e-07
1.64853e-07
-2.60118e-07
1.4845e-07
-2.4427e-07
-2.60118e-07
3.48121e-07
-2.4427e-07
3.05192e-07
-6.72746e-06
7.49259e-06
2.1234e-06
-2.8433e-06
7.49259e-06
-5.87127e-07
-2.8433e-06
-5.3157e-06
-1.25091e-05
1.59314e-05
-8.58257e-06
1.54692e-06
1.59314e-05
-6.72746e-06
1.54692e-06
2.1234e-06
9.74003e-05
-1.98166e-06
6.72963e-05
2.07272e-05
-1.98167e-06
-1.25091e-05
2.07272e-05
-8.58257e-06
-0.000113188
-0.000195787
-0.000220356
-0.000200303
-0.000195787
9.74001e-05
-0.000200303
6.72963e-05
-4.57406e-05
-3.06478e-05
-3.58094e-05
-0.000116342
-3.06477e-05
-0.000113188
-0.000116342
-0.000220356
-2.97789e-05
-4.11065e-05
-6.25259e-05
-3.40385e-05
-4.11065e-05
-4.57406e-05
-3.40385e-05
-3.58094e-05
-3.76621e-05
-2.76898e-05
-4.84775e-05
-6.11813e-05
-2.76897e-05
-2.97789e-05
-6.11813e-05
-6.25259e-05
-2.62387e-05
-3.51497e-05
-4.64125e-05
-4.58735e-05
-3.51497e-05
-3.76621e-05
-4.58735e-05
-4.84775e-05
-3.27708e-05
-2.02495e-05
-4.81148e-05
-4.14278e-05
-2.02495e-05
-2.62387e-05
-4.14278e-05
-4.64125e-05
3.1482e-05
-3.27708e-05
0.000101133
0.000144106
0.000101133
0.000144106
-3.86849e-05
-4.81148e-05
2.94167e-05
3.22729e-05
6.95449e-07
-3.73825e-05
6.95449e-07
-3.73825e-05
-6.72746e-06
7.49259e-06
0.000165984
-0.000137982
-5.78998e-05
4.76399e-05
-0.000137982
2.94167e-05
4.76399e-05
6.95452e-07
4.76399e-05
6.95451e-07
1.59314e-05
-6.72746e-06
-5.78998e-05
4.76399e-05
-1.25091e-05
1.59314e-05
-0.00137169
-4.78057e-05
0.00049941
2.85562e-05
-4.78056e-05
0.000165984
2.85562e-05
-5.78998e-05
2.85562e-05
-5.78998e-05
-1.98169e-06
-1.25091e-05
0.00049941
2.85562e-05
9.74002e-05
-1.98168e-06
0.00232304
0.00304249
-0.000869813
-0.00110736
0.00304249
-0.00137169
-0.00110736
0.00049941
-0.00110736
0.00049941
-0.000195787
9.74001e-05
-0.000869813
-0.00110736
-0.000113188
-0.000195787
0.000629217
0.000985416
-0.000231497
-0.000372537
0.000985416
0.00232304
-0.000372537
-0.000869813
-0.000372537
-0.000869813
-3.06478e-05
-0.000113188
-0.000231497
-0.000372537
-4.57406e-05
-3.06478e-05
0.000650827
0.00059988
-0.000242293
-0.000215856
0.00059988
0.000629217
-0.000215856
-0.000231497
-0.000215856
-0.000231497
-4.11065e-05
-4.57406e-05
-0.000242293
-0.000215856
-2.97788e-05
-4.11065e-05
0.000622783
0.000604088
-0.000230497
-0.000225753
0.000604088
0.000650827
-0.000225753
-0.000242293
-0.000225753
-0.000242293
-2.76898e-05
-2.97788e-05
-0.000230497
-0.000225753
-3.76621e-05
-2.76898e-05
0.000514343
0.00059329
-0.000190682
-0.00021705
0.00059329
0.000622783
-0.00021705
-0.000230497
-0.00021705
-0.000230497
-3.51497e-05
-3.76621e-05
-0.000190682
-0.00021705
-2.62387e-05
-3.51497e-05
0.000621365
0.000443479
-0.000223646
-0.000162844
0.000443479
0.000514343
-0.000162844
-0.000190682
-0.000162844
-0.000190682
-2.02495e-05
-2.62387e-05
-0.000223646
-0.000162844
-3.27708e-05
-2.02495e-05
0.000668491
0.000621365
-0.000268448
-0.000223646
-0.000268448
-0.000223646
3.1482e-05
-3.27708e-05
-6.6951e-05
2.24135e-05
2.94167e-05
3.22729e-05
-0.000619254
0.000163346
0.000312879
-6.6951e-05
0.000312879
-6.6951e-05
-0.000137982
2.94167e-05
-0.000346618
0.000312879
0.000165984
-0.000137982
0.000148498
-0.000346618
-4.78056e-05
0.000165984
0.00295349
0.000148498
-0.00137169
-4.78056e-05
-0.00621245
0.00295349
0.00304249
-0.00137169
-0.00463245
-0.00621245
0.00232304
0.00304249
-0.00184231
-0.00463245
0.000985416
0.00232304
-0.00103693
-0.00184231
0.000629217
0.000985416
0.00871021
0.00832146
-0.000994678
-0.000928992
0.00832146
0.00849834
-0.000928992
-0.00103693
-0.000928992
-0.00103693
0.00059988
0.000629217
-0.000994678
-0.000928992
0.000650827
0.00059988
0.00871046
0.00830932
-0.000940115
-0.000894679
0.00830932
0.00871021
-0.000894679
-0.000994678
-0.000894679
-0.000994678
0.000604088
0.000650827
-0.000940115
-0.000894679
0.000622783
0.000604088
0.00860522
0.00833792
-0.000723139
-0.000859117
0.00833792
0.00871046
-0.000859117
-0.000940115
-0.000859117
-0.000940115
0.00059329
0.000622783
-0.000723139
-0.000859117
0.000514343
0.00059329
0.00771259
0.00860522
-0.000551709
-0.000723139
-0.000551709
-0.000723139
0.000443479
0.000514343
-0.000921702
-0.000551709
0.000621365
0.000443479
-0.00103464
-0.000921702
0.000668491
0.000621365
0.147713
0.146886
0.00871046
0.00830932
0.14731
0.147713
0.00833792
0.00871046
0.151826
0.14731
0.00860522
0.00833792
-5.79264e-06
2.67317e-06
2.2119e-05
-6.78874e-06
2.67317e-06
-1.40485e-06
-6.78875e-06
4.4161e-06
-1.40485e-06
7.11247e-07
4.4161e-06
-3.02302e-06
7.11248e-07
1.02573e-06
-3.02302e-06
-2.96943e-06
-0.000196845
4.84929e-05
2.35091e-05
-6.1975e-05
4.84929e-05
2.2119e-05
-6.1975e-05
-2.64941e-05
2.2119e-05
-6.78875e-06
-2.64941e-05
1.99496e-05
-6.78875e-06
4.4161e-06
1.99496e-05
-1.14014e-05
4.4161e-06
-3.02302e-06
-1.14014e-05
6.93197e-06
-3.02302e-06
-2.96943e-06
6.93198e-06
6.93748e-06
2.35091e-05
-6.1975e-05
5.43993e-05
-2.077e-05
-6.1975e-05
-2.64941e-05
-2.077e-05
-3.00926e-05
-2.64941e-05
1.99496e-05
-3.00926e-05
1.80964e-05
1.99496e-05
-1.14014e-05
1.80964e-05
-1.04492e-05
-1.14014e-05
6.93197e-06
-1.04492e-05
6.34022e-06
6.93197e-06
6.93748e-06
6.34022e-06
6.05738e-06
5.43993e-05
-2.077e-05
4.61605e-05
-7.8038e-05
-2.077e-05
-3.00926e-05
-7.8038e-05
-2.96661e-05
-3.00926e-05
1.80964e-05
-2.96661e-05
2.06224e-05
1.80964e-05
-1.04492e-05
2.06224e-05
-1.17152e-05
-1.04492e-05
6.34022e-06
-1.17152e-05
6.98402e-06
6.34022e-06
6.05738e-06
6.98402e-06
6.66161e-06
4.61605e-05
-0.000450533
-9.59973e-05
-0.000713218
-0.000450533
-7.8038e-05
-0.000713218
-0.000370448
-7.8038e-05
-2.96661e-05
-0.000370448
4.95275e-05
-2.96661e-05
2.06224e-05
4.95275e-05
-1.71603e-05
2.06224e-05
-1.17152e-05
-1.71603e-05
1.06894e-05
-1.17152e-05
6.98402e-06
1.06894e-05
-6.78479e-06
6.98402e-06
6.66161e-06
-6.78479e-06
-3.56028e-06
-9.59973e-05
-0.000713218
-9.73736e-05
-0.000160919
-0.000713218
-0.000370448
-0.000160919
-6.74139e-05
-0.000370448
4.95276e-05
-6.74139e-05
2.30747e-05
4.95276e-05
-1.71603e-05
2.30747e-05
-7.60559e-06
-1.71603e-05
1.06894e-05
-7.60559e-06
5.11871e-06
1.06894e-05
-6.78479e-06
5.1187e-06
-3.47155e-06
-6.78479e-06
-3.56028e-06
-3.47155e-06
-3.02633e-06
-6.74139e-05
2.30747e-05
2.05326e-05
-1.57322e-05
2.30747e-05
-7.60559e-06
-1.57322e-05
1.38941e-05
-7.60559e-06
5.11871e-06
1.38941e-05
-8.26938e-06
5.11871e-06
-3.47155e-06
-8.26938e-06
5.16623e-06
-3.47155e-06
-3.02633e-06
5.16623e-06
3.59804e-06
2.05326e-05
-1.57322e-05
1.09373e-05
7.98694e-06
-1.57322e-05
1.38941e-05
7.98694e-06
-3.89146e-06
1.38941e-05
-8.26939e-06
-3.89146e-06
2.30464e-06
-8.26938e-06
5.16623e-06
2.30464e-06
-1.38582e-06
5.16623e-06
3.59804e-06
-1.38582e-06
-1.34746e-06
0.000151457
-5.40674e-05
-0.000691348
0.000348829
-6.81081e-05
6.14135e-05
0.000509518
-0.000241717
6.14135e-05
-1.1389e-05
-0.000241717
8.79627e-05
0.000201943
0.000152301
0.00214495
-0.000990795
0.000152301
-6.8108e-05
-0.000990795
0.000509518
-0.000990795
0.000509518
-5.40674e-05
2.61618e-05
0.00214495
-0.000990795
0.000151457
-5.40674e-05
0.000259358
-4.47063e-05
-4.89721e-05
-0.000117541
-4.89721e-05
-0.000117541
-1.1389e-05
5.45468e-05
-4.47063e-05
2.05326e-05
-0.000117541
1.59417e-05
-0.000117541
1.59417e-05
5.45468e-05
1.09373e-05
0.0013768
-0.000143009
-0.000378953
0.000327429
-0.000143009
0.000259358
0.000327429
-4.89721e-05
0.000327429
-4.89722e-05
6.14135e-05
-1.1389e-05
-0.000378953
0.000327429
-6.8108e-05
6.14135e-05
0.00620706
-0.00245977
-0.000620715
0.000834819
-0.00245977
0.0013768
0.000834819
-0.000378953
0.000834819
-0.000378953
0.000152301
-6.81081e-05
-0.000620715
0.000834819
0.000201943
0.000152301
0.0224162
0.00620706
0.0179781
-0.000620715
-9.73735e-05
-0.000160919
0.000259358
-4.47063e-05
-0.000160919
-6.74139e-05
-4.47063e-05
2.05326e-05
-0.000595229
0.000413746
0.000909655
-0.000109794
0.000909655
-0.000109794
0.0013768
-0.000143009
0.000413746
-9.73735e-05
-0.000109794
0.000179439
-0.000109794
0.000179439
-0.000143009
0.000259358
-0.00197678
0.00125502
0.00425446
-0.00160364
0.00125502
-0.000595229
-0.00160364
0.000909655
-0.00160364
0.000909655
-0.00245977
0.0013768
0.00425446
-0.00160364
0.00620706
-0.00245977
0.16386
0.0133809
0.300305
0.0187091
0.0133809
-0.00197678
0.0187091
0.00425445
0.0187091
0.00425446
0.0224162
0.00620707
-0.00134437
0.000819785
-0.00126882
0.000749097
-0.00126882
0.000749097
-0.000595229
0.000413746
0.000819785
-9.59974e-05
0.000749097
-0.000172343
0.000749097
-0.000172343
0.000413746
-9.73735e-05
-0.00512457
0.00277125
-0.00475876
0.00257231
0.00277125
-0.00134437
0.00257231
-0.00126882
0.00257231
-0.00126882
0.00125502
-0.000595229
-0.00475876
0.00257231
-0.00197679
0.00125502
0.0909434
0.0137294
0.102809
0.0135867
0.0137294
-0.00512457
0.0135867
-0.00475876
0.0135867
-0.00475876
0.0133809
-0.00197678
0.102809
0.0135867
0.16386
0.0133809
0.69152
0.0909434
0.715614
0.102809
0.715614
0.102809
0.79875
0.16386
-0.00122361
0.000589498
-0.00135653
0.000739416
-0.00135653
0.000739416
-0.00134437
0.000819785
0.000589498
4.61606e-05
0.000739416
-7.82529e-06
0.000739416
-7.82529e-06
0.000819785
-9.59974e-05
-0.00498039
0.00262732
-0.00534984
0.00284505
0.00262732
-0.00122361
0.00284505
-0.00135653
0.00284505
-0.00135653
0.00277125
-0.00134437
-0.00534984
0.00284505
-0.00512457
0.00277125
0.0429681
0.0118718
0.0746652
0.0135807
0.0118718
-0.00498039
0.0135807
-0.00534984
0.0135807
-0.00534984
0.0137294
-0.00512457
0.0746652
0.0135807
0.0909434
0.0137294
0.959319
0.513137
0.977623
0.641747
0.513137
0.0429681
0.641747
0.0746652
0.641747
0.0746652
0.69152
0.0909434
0.977623
0.641747
0.982637
0.69152
0.991897
0.959319
0.994399
0.977623
0.994399
0.977623
0.997386
0.982637
-0.00081468
0.000379568
-0.000905429
0.000434336
-0.000905429
0.000434336
-0.00122361
0.000589498
0.000379568
5.43993e-05
0.000434336
5.49869e-05
0.000434336
5.49869e-05
0.000589498
4.61605e-05
-0.00326662
0.00169806
-0.00360068
0.00188809
0.00169806
-0.00081468
0.00188809
-0.000905429
0.00188809
-0.000905429
0.00262732
-0.00122361
-0.00360068
0.00188809
-0.00498039
0.00262732
0.0215823
0.00760593
0.0238661
0.00859298
0.00760593
-0.00326662
0.00859298
-0.00360068
0.00859298
-0.00360068
0.0118718
-0.00498039
0.0238661
0.00859298
0.0429681
0.0118718
0.92758
0.373082
0.933403
0.392679
0.373082
0.0215822
0.392679
0.0238661
0.392679
0.0238661
0.513137
0.0429681
0.933403
0.392679
0.959319
0.513137
0.989938
0.92758
0.990089
0.933403
0.990089
0.933403
0.991897
0.959319