# vtk DataFile Version 2.0
Hex test
ASCII
DATASET UNSTRUCTURED_GRID
POINTS 10484 float
46 24 0
46 25 0
48 24 0
48 25 0
46 25 0
46 26 0
48 25 0
48 26 0
46 26 0
46 27 0
48 26 0
48 27 0
46 27 0
46 28 0
48 27 0
48 28 0
46 28 0
46 29 0
48 28 0
48 29 0
46 29 0
46 30 0
48 29 0
48 30 0
46 30 0
46 31 0
48 30 0
48 31 0
46 31 0
46 32 0
48 31 0
48 32 0
46 32 0
46 33 0
48 32 0
48 33 0
46 33 0
46 34 0
48 33 0
48 34 0
46 34 0
46 35 0
48 34 0
48 35 0
46 35 0
46 36 0
48 35 0
48 36 0
46 36 0
46 37 0
48 36 0
48 37 0
46 37 0
46 38 0
48 37 0
48 38 0
46 38 0
46 39 0
48 38 0
48 39 0
46 39 0
46 40 0
48 39 0
48 40 0
48 24 0
48 25 0
50 24 0
50 25 0
48 25 0
48 26 0
50 25 0
50 26 0
48 26 0
48 27 0
50 26 0
50 27 0
48 27 0
48 28 0
50 27 0
50 28 0
48 28 0
48 29 0
50 28 0
50 29 0
48 29 0
48 30 0
50 29 0
50 30 0
48 30 0
48 31 0
50 30 0
50 31 0
48 31 0
48 32 0
50 31 0
50 32 0
48 32 0
48 33 0
50 32 0
50 33 0
48 33 0
48 34 0
50 33 0
50 34 0
48 34 0
48 35 0
50 34 0
50 35 0
48 35 0
48 36 0
50 35 0
50 36 0
48 36 0
48 37 0
50 36 0
50 37 0
48 37 0
48 38 0
50 37 0
50 38 0
48 38 0
48 39 0
50 38 0
50 39 0
48 39 0
48 40 0
50 39 0
50 40 0
50 24 0
50 26 0
52 24 0
52 26 0
50 26 0
50 28 0
52 26 0
52 28 0
50 28 0
50 30 0
52 28 0
52 30 0
50 30 0
50 32 0
52 30 0
52 32 0
50 32 0
50 34 0
52 32 0
52 34 0
50 34 0
50 36 0
52 34 0
52 36 0
50 36 0
50 38 0
52 36 0
52 38 0
50 38 0
50 40 0
52 38 0
52 40 0
50 40 0
50 42 0
52 40 0
52 42 0
52 24 0
52 26 0
54 24 0
54 26 0
52 26 0
52 28 0
54 26 0
54 28 0
52 28 0
52 30 0
54 28 0
54 30 0
52 30 0
52 32 0
54 30 0
54 32 0
52 32 0
52 34 0
54 32 0
54 34 0
52 34 0
52 36 0
54 34 0
54 36 0
52 36 0
52 38 0
54 36 0
54 38 0
52 38 0
52 40 0
54 38 0
54 40 0
52 40 0
52 42 0
54 40 0
54 42 0
54 24 0
54 26 0
56.1667 24 0
56.1667 26 0
54 26 0
54 28 0
56.1667 26 0
56.1667 28 0
54 28 0
54 30 0
56.1667 28 0
56.1667 30 0
54 30 0
54 32 0
56.1667 30 0
56.1667 32 0
54 32 0
54 34 0
56.1667 32 0
56.1667 34 0
54 34 0
54 36 0
56.1667 34 0
56.1667 36 0
54 36 0
54 38 0
56.1667 36 0
56.1667 38 0
54 38 0
54 40 0
56.1667 38 0
56.1667 40 0
54 40 0
54 42 0
56.1667 40 0
56.1667 42 0
56.1667 26 0
56.1667 28 0
60 26 0
60 28 0
56.1667 28 0
56.1667 30 0
60 28 0
60 30 0
56.1667 30 0
56.1667 32 0
60 30 0
60 32 0
56.1667 32 0
56.1667 34 0
60 32 0
60 34 0
56.1667 34 0
56.1667 36 0
60 34 0
60 36 0
56.1667 36 0
56.1667 38 0
60 36 0
60 38 0
56.1667 38 0
56.1667 40 0
60 38 0
60 40 0
56.1667 40 0
56.1667 42 0
60 40 0
60 42 0
44 38 0
44 39 0
46 38 0
46 39 0
44 39 0
44 40 0
46 39 0
46 40 0
44 36 0
44 37 0
46 36 0
46 37 0
44 37 0
44 38 0
46 37 0
46 38 0
44 34 0
44 35 0
46 34 0
46 35 0
44 35 0
44 36 0
46 35 0
46 36 0
44 32 0
44 33 0
46 32 0
46 33 0
44 33 0
44 34 0
46 33 0
46 34 0
44 30 0
44 31 0
46 30 0
46 31 0
44 31 0
44 32 0
46 31 0
46 32 0
44 28 0
44 29 0
46 28 0
46 29 0
44 29 0
44 30 0
46 29 0
46 30 0
44 26 0
44 27 0
46 26 0
46 27 0
44 27 0
44 28 0
46 27 0
46 28 0
44 24 0
44 25 0
46 24 0
46 25 0
44 25 0
44 26 0
46 25 0
46 26 0
44 23 0
44 24 0
46 23 0
46 24 0
42 38 0
42 39 0
43 38 0
43 39 0
43 38 0
43 39 0
44 38 0
44 39 0
42 36 0
42 37 0
43 36 0
43 37 0
42 37 0
42 38 0
43 37 0
43 38 0
43 37 0
43 38 0
44 37 0
44 38 0
43 36 0
43 37 0
44 36 0
44 37 0
42 34 0
42 35 0
43 34 0
43 35 0
42 35 0
42 36 0
43 35 0
43 36 0
43 35 0
43 36 0
44 35 0
44 36 0
43 34 0
43 35 0
44 34 0
44 35 0
42 32 0
42 33 0
43 32 0
43 33 0
42 33 0
42 34 0
43 33 0
43 34 0
43 33 0
43 34 0
44 33 0
44 34 0
43 32 0
43 33 0
44 32 0
44 33 0
42 30 0
42 31 0
43 30 0
43 31 0
42 31 0
42 32 0
43 31 0
43 32 0
43 31 0
43 32 0
44 31 0
44 32 0
43 30 0
43 31 0
44 30 0
44 31 0
42 28 0
42 29 0
43 28 0
43 29 0
42 29 0
42 30 0
43 29 0
43 30 0
43 29 0
43 30 0
44 29 0
44 30 0
43 28 0
43 29 0
44 28 0
44 29 0
42 26 0
42 27 0
43 26 0
43 27 0
42 27 0
42 28 0
43 27 0
43 28 0
43 27 0
43 28 0
44 27 0
44 28 0
43 26 0
43 27 0
44 26 0
44 27 0
42 24 0
42 25 0
43 24 0
43 25 0
42 25 0
42 26 0
43 25 0
43 26 0
43 25 0
43 26 0
44 25 0
44 26 0
43 24 0
43 25 0
44 24 0
44 25 0
42 23 0
42 24 0
43 23 0
43 24 0
43 23 0
43 24 0
44 23 0
44 24 0
41 38 0
41 39 0
42 38 0
42 39 0
40 36 0
40 37 0
41 36 0
41 37 0
40 37 0
40 38 0
41 37 0
41 38 0
41 37 0
41 38 0
42 37 0
42 38 0
41 36 0
41 37 0
42 36 0
42 37 0
40 34 0
40 35 0
41 34 0
41 35 0
40 35 0
40 36 0
41 35 0
41 36 0
41 35 0
41 36 0
42 35 0
42 36 0
41 34 0
41 35 0
42 34 0
42 35 0
40 32 0
40 33 0
41 32 0
41 33 0
40 33 0
40 34 0
41 33 0
41 34 0
41 33 0
41 34 0
42 33 0
42 34 0
41 32 0
41 33 0
42 32 0
42 33 0
40 30 0
40 31 0
41 30 0
41 31 0
40 31 0
40 32 0
41 31 0
41 32 0
41 31 0
41 32 0
42 31 0
42 32 0
41 30 0
41 31 0
42 30 0
42 31 0
40 28 0
40 29 0
41 28 0
41 29 0
40 29 0
40 30 0
41 29 0
41 30 0
41 29 0
41 30 0
42 29 0
42 30 0
41 28 0
41 29 0
42 28 0
42 29 0
40 26 0
40 27 0
41 26 0
41 27 0
40 27 0
40 28 0
41 27 0
41 28 0
41 27 0
41 28 0
42 27 0
42 28 0
41 26 0
41 27 0
42 26 0
42 27 0
40 24 0
40 25 0
41 24 0
41 25 0
40 25 0
40 26 0
41 25 0
41 26 0
41 25 0
41 26 0
42 25 0
42 26 0
41 24 0
41 25 0
42 24 0
42 25 0
40 22 0
40 23 0
41 22 0
41 23 0
40 23 0
40 24 0
41 23 0
41 24 0
41 23 0
41 24 0
42 23 0
42 24 0
39 37 0
39 38 0
40 37 0
40 38 0
39 36 0
39 37 0
40 36 0
40 37 0
39 35 0
39 36 0
40 35 0
40 36 0
39 34 0
39 35 0
40 34 0
40 35 0
39 33 0
39 34 0
40 33 0
40 34 0
39 32 0
39 33 0
40 32 0
40 33 0
39 31 0
39 32 0
40 31 0
40 32 0
39 30 0
39 31 0
40 30 0
40 31 0
39 29 0
39 30 0
40 29 0
40 30 0
39 28 0
39 29 0
40 28 0
40 29 0
38 26 0
38 27 0
39 26 0
39 27 0
39 27 0
39 28 0
40 27 0
40 28 0
39 26 0
39 27 0
40 26 0
40 27 0
38 24 0
38 25 0
39 24 0
39 25 0
38 25 0
38 26 0
39 25 0
39 26 0
39 25 0
39 26 0
40 25 0
40 26 0
39 24 0
39 25 0
40 24 0
40 25 0
38 23 0
38 24 0
39 23 0
39 24 0
39 23 0
39 24 0
40 23 0
40 24 0
39 22 0
39 23 0
40 22 0
40 23 0
36 48 0
36 50 0
38 48 0
38 50 0
36 50 0
36 52 0
38 50 0
38 52 0
36 52 0
36 54 0
38 52 0
38 54 0
36 54 0
36 56.1667 0
38 54 0
38 56.1667 0
36 56.1667 0
36 60 0
38 56.1667 0
38 60 0
38 46 0
38 47 0
40 46 0
40 47 0
38 47 0
38 48 0
40 47 0
40 48 0
38 48 0
38 50 0
40 48 0
40 50 0
38 50 0
38 52 0
40 50 0
40 52 0
38 52 0
38 54 0
40 52 0
40 54 0
38 54 0
38 56.1667 0
40 54 0
40 56.1667 0
38 56.1667 0
38 60 0
40 56.1667 0
40 60 0
40 46 0
40 47 0
42 46 0
42 47 0
40 47 0
40 48 0
42 47 0
42 48 0
40 48 0
40 50 0
42 48 0
42 50 0
40 50 0
40 52 0
42 50 0
42 52 0
40 52 0
40 54 0
42 52 0
42 54 0
40 54 0
40 56.1667 0
42 54 0
42 56.1667 0
40 56.1667 0
40 60 0
42 56.1667 0
42 60 0
42 44 0
42 45 0
44 44 0
44 45 0
42 45 0
42 46 0
44 45 0
44 46 0
42 46 0
42 48 0
44 46 0
44 48 0
42 48 0
42 50 0
44 48 0
44 50 0
42 50 0
42 52 0
44 50 0
44 52 0
42 52 0
42 54 0
44 52 0
44 54 0
42 54 0
42 56.1667 0
44 54 0
44 56.1667 0
42 56.1667 0
42 60 0
44 56.1667 0
44 60 0
44 40 0
44 41 0
46 40 0
46 41 0
44 41 0
44 42 0
46 41 0
46 42 0
44 42 0
44 43 0
46 42 0
46 43 0
44 43 0
44 44 0
46 43 0
46 44 0
44 44 0
44 45 0
46 44 0
46 45 0
44 45 0
44 46 0
46 45 0
46 46 0
44 46 0
44 48 0
46 46 0
46 48 0
44 48 0
44 50 0
46 48 0
46 50 0
44 50 0
44 52 0
46 50 0
46 52 0
44 52 0
44 54 0
46 52 0
46 54 0
44 54 0
44 56.1667 0
46 54 0
46 56.1667 0
44 56.1667 0
44 60 0
46 56.1667 0
46 60 0
46 40 0
46 41 0
48 40 0
48 41 0
46 41 0
46 42 0
48 41 0
48 42 0
46 42 0
46 43 0
48 42 0
48 43 0
46 43 0
46 44 0
48 43 0
48 44 0
46 44 0
46 46 0
48 44 0
48 46 0
46 46 0
46 48 0
48 46 0
48 48 0
46 48 0
46 50 0
48 48 0
48 50 0
46 50 0
46 52 0
48 50 0
48 52 0
46 52 0
46 54 0
48 52 0
48 54 0
46 54 0
46 56.1667 0
48 54 0
48 56.1667 0
46 56.1667 0
46 60 0
48 56.1667 0
48 60 0
48 40 0
48 42 0
50 40 0
50 42 0
48 42 0
48 44 0
50 42 0
50 44 0
48 44 0
48 46 0
50 44 0
50 46 0
48 46 0
48 48 0
50 46 0
50 48 0
48 48 0
48 50 0
50 48 0
50 50 0
48 50 0
48 52 0
50 50 0
50 52 0
48 52 0
48 54 0
50 52 0
50 54 0
48 54 0
48 56.1667 0
50 54 0
50 56.1667 0
48 56.1667 0
48 60 0
50 56.1667 0
50 60 0
50 42 0
50 44 0
52 42 0
52 44 0
50 44 0
50 46 0
52 44 0
52 46 0
50 46 0
50 48 0
52 46 0
52 48 0
50 48 0
50 50 0
52 48 0
52 50 0
50 50 0
50 52 0
52 50 0
52 52 0
50 52 0
50 54 0
52 52 0
52 54 0
50 54 0
50 56.1667 0
52 54 0
52 56.1667 0
50 56.1667 0
50 60 0
52 56.1667 0
52 60 0
52 42 0
52 44 0
54 42 0
54 44 0
52 44 0
52 46 0
54 44 0
54 46 0
52 46 0
52 48 0
54 46 0
54 48 0
52 48 0
52 50 0
54 48 0
54 50 0
52 50 0
52 52 0
54 50 0
54 52 0
52 52 0
52 54 0
54 52 0
54 54 0
52 54 0
52 56.1667 0
54 54 0
54 56.1667 0
52 56.1667 0
52 60 0
54 56.1667 0
54 60 0
54 42 0
54 44 0
56.1667 42 0
56.1667 44 0
54 44 0
54 46 0
56.1667 44 0
56.1667 46 0
54 46 0
54 48 0
56.1667 46 0
56.1667 48 0
54 48 0
54 50 0
56.1667 48 0
56.1667 50 0
54 50 0
54 52 0
56.1667 50 0
56.1667 52 0
54 52 0
54 54 0
56.1667 52 0
56.1667 54 0
54 54 0
54 56.1667 0
56.1667 54 0
56.1667 56.1667 0
54 56.1667 0
54 60 0
56.1667 56.1667 0
56.1667 60 0
56.1667 42 0
56.1667 44 0
60 42 0
60 44 0
56.1667 44 0
56.1667 46 0
60 44 0
60 46 0
56.1667 46 0
56.1667 48 0
60 46 0
60 48 0
56.1667 48 0
56.1667 50 0
60 48 0
60 50 0
56.1667 50 0
56.1667 52 0
60 50 0
60 52 0
56.1667 52 0
56.1667 54 0
60 52 0
60 54 0
56.1667 54 0
56.1667 56.1667 0
60 54 0
60 56.1667 0
56.1667 56.1667 0
56.1667 60 0
60 56.1667 0
60 60 0
42 42 0
42 43 0
44 42 0
44 43 0
42 43 0
42 44 0
44 43 0
44 44 0
42 40 0
42 41 0
44 40 0
44 41 0
42 41 0
42 42 0
44 41 0
44 42 0
42 39 0
42 40 0
43 39 0
43 40 0
43 39 0
43 40 0
44 39 0
44 40 0
40 44 0
40 45 0
42 44 0
42 45 0
40 45 0
40 46 0
42 45 0
42 46 0
40 42 0
40 43 0
41 42 0
41 43 0
41 42 0
41 43 0
42 42 0
42 43 0
40 43 0
40 44 0
41 43 0
41 44 0
41 43 0
41 44 0
42 43 0
42 44 0
40 40 0
40 41 0
41 40 0
41 41 0
40 41 0
40 42 0
41 41 0
41 42 0
41 41 0
41 42 0
42 41 0
42 42 0
41 40 0
41 41 0
42 40 0
42 41 0
40 38 0
40 39 0
41 38 0
41 39 0
40 39 0
40 40 0
41 39 0
41 40 0
41 39 0
41 40 0
42 39 0
42 40 0
38 44 0
38 45 0
39 44 0
39 45 0
39 44 0
39 45 0
40 44 0
40 45 0
38 45 0
38 46 0
39 45 0
39 46 0
39 45 0
39 46 0
40 45 0
40 46 0
38 42 0
38 43 0
39 42 0
39 43 0
38 43 0
38 44 0
39 43 0
39 44 0
39 43 0
39 44 0
40 43 0
40 44 0
39 42 0
39 43 0
40 42 0
40 43 0
38 40 0
38 41 0
39 40 0
39 41 0
38 41 0
38 42 0
39 41 0
39 42 0
39 41 0
39 42 0
40 41 0
40 42 0
39 40 0
39 41 0
40 40 0
40 41 0
38 38 0
38 39 0
39 38 0
39 39 0
38 39 0
38 40 0
39 39 0
39 40 0
39 39 0
39 40 0
[...]
POINT_DATA 10484
SCALARS phi float 1
LOOKUP_TABLE default
-4.76997e-05
-4.71948e-05
3.61401e-05
2.25472e-05
-4.71948e-05
-4.9693e-05
2.25472e-05
2.48189e-05
-4.9693e-05
-6.24169e-05
2.48189e-05
5.9388e-05
-6.24169e-05
-6.39791e-05
5.9388e-05
6.16738e-05
-6.39791e-05
-3.55842e-05
6.16738e-05
3.22208e-06
-3.55842e-05
-3.73408e-05
3.22208e-06
3.73995e-06
-3.73408e-05
-0.000118357
3.73995e-06
0.000144525
-0.000118357
-0.000221146
0.000144525
0.000181645
-0.000221146
-0.000200181
0.000181645
7.49422e-06
-0.000200181
6.74858e-05
7.49422e-06
5.35369e-05
6.74858e-05
2.0479e-05
5.35369e-05
-4.50856e-05
2.0479e-05
-8.63954e-06
-4.50856e-05
-5.31661e-06
-8.63954e-06
1.40209e-06
-5.31661e-06
1.74828e-05
1.40209e-06
2.14078e-06
1.74828e-05
-5.99056e-06
2.14078e-06
-2.76508e-06
-5.99056e-06
-6.72069e-06
-2.76508e-06
-5.24037e-06
-6.72069e-06
6.58289e-06
3.61401e-05
2.25472e-05
-1.56546e-05
-1.28047e-05
2.25472e-05
2.48189e-05
-1.28047e-05
-1.79636e-05
2.48189e-05
5.9388e-05
-1.79636e-05
-2.73198e-05
5.9388e-05
6.16738e-05
-2.73198e-05
-2.55009e-05
6.16738e-05
3.22208e-06
-2.55009e-05
-5.49787e-06
3.22208e-06
3.73995e-06
-5.49787e-06
-5.31735e-06
3.73996e-06
0.000144525
-5.31736e-06
-5.2164e-05
0.000144525
0.000181645
-5.2164e-05
-8.50186e-05
0.000181645
7.49421e-06
-8.50186e-05
-4.81796e-05
7.49421e-06
5.35369e-05
-4.81796e-05
4.55524e-06
5.35369e-05
-4.50856e-05
4.55525e-06
1.27793e-05
-4.50856e-05
-5.31661e-06
1.27793e-05
-8.54849e-07
-5.31661e-06
1.74828e-05
-8.54849e-07
-2.71995e-06
1.74828e-05
-5.99056e-06
-2.71995e-06
1.65167e-06
-5.99055e-06
-6.72069e-06
1.65167e-06
7.10572e-07
-6.72069e-06
6.5829e-06
7.10572e-07
-2.00193e-06
-1.56546e-05
-1.79636e-05
9.40239e-06
9.30244e-06
-1.79636e-05
-2.55009e-05
9.30244e-06
1.44953e-05
-2.55009e-05
-5.31735e-06
1.44953e-05
4.90032e-06
-5.31736e-06
-8.50186e-05
4.90032e-06
4.67139e-05
-8.50186e-05
4.55524e-06
4.67139e-05
-2.87595e-06
4.55524e-06
-8.54847e-07
-2.87595e-06
5.17163e-07
-8.54848e-07
1.65167e-06
5.17164e-07
-8.60351e-07
1.65167e-06
-2.00194e-06
-8.60351e-07
1.04278e-06
-2.00194e-06
8.74065e-07
1.04278e-06
-4.60838e-07
9.40239e-06
9.30244e-06
-5.41338e-06
-5.38875e-06
9.30245e-06
1.44953e-05
-5.38875e-06
-8.27198e-06
1.44953e-05
4.90033e-06
-8.27198e-06
-2.68525e-06
4.90032e-06
4.67139e-05
-2.68525e-06
-2.66962e-05
4.67139e-05
-2.87595e-06
-2.66962e-05
1.54511e-06
-2.87595e-06
5.17164e-07
1.5451e-06
-2.82356e-07
5.17162e-07
-8.60351e-07
-2.82356e-07
4.78358e-07
-8.60351e-07
1.04278e-06
4.78358e-07
-5.90113e-07
1.04278e-06
-4.60838e-07
-5.90113e-07
2.63903e-07
-5.41338e-06
-5.38875e-06
3.31386e-06
3.31925e-06
-5.38874e-06
-8.27198e-06
3.31925e-06
5.05858e-06
-8.27198e-06
-2.68525e-06
5.05858e-06
1.55681e-06
-2.68525e-06
-2.66962e-05
1.55681e-06
1.61049e-05
-2.66962e-05
1.5451e-06
1.61049e-05
-7.9311e-07
1.5451e-06
-2.82356e-07
-7.93111e-07
1.80307e-07
-2.82357e-07
4.78358e-07
1.80307e-07
-2.68691e-07
4.78358e-07
-5.90113e-07
-2.68691e-07
3.49403e-07
-5.90113e-07
2.63903e-07
3.49403e-07
-1.61959e-07
3.31925e-06
5.05858e-06
2.93281e-06
4.40883e-06
5.05858e-06
1.55681e-06
4.40883e-06
1.56064e-06
1.55681e-06
1.61049e-05
1.56064e-06
1.40486e-05
1.61049e-05
-7.9311e-07
1.40486e-05
-8.45243e-07
-7.9311e-07
1.80307e-07
-8.45243e-07
1.62431e-07
1.80306e-07
-2.68691e-07
1.62431e-07
-2.4928e-07
-2.68691e-07
3.49403e-07
-2.4928e-07
3.05169e-07
3.49403e-07
-1.61959e-07
3.05169e-07
-1.37235e-07
-6.65073e-06
7.46906e-06
2.14078e-06
-2.76508e-06
7.46906e-06
-4.36055e-07
-2.76508e-06
-5.24037e-06
-1.24206e-05
1.57459e-05
-8.63954e-06
1.40209e-06
1.57459e-05
-6.65073e-06
1.40209e-06
2.14078e-06
9.7361e-05
-2.46102e-06
6.74858e-05
2.0479e-05
-2.46102e-06
-1.24206e-05
2.0479e-05
-8.63954e-06
-0.000113764
-0.000195855
-0.000221146
-0.000200181
-0.000195855
9.73608e-05
-0.000200181
6.74858e-05
-4.66557e-05
-3.23845e-05
-3.73408e-05
-0.000118357
-3.23845e-05
-0.000113764
-0.000118357
-0.000221146
-3.05209e-05
-4.17855e-05
-6.39791e-05
-3.55842e-05
-4.17855e-05
-4.66557e-05
-3.55842e-05
-3.73408e-05
-3.83398e-05
-2.84058e-05
-4.9693e-05
-6.24169e-05
-2.84058e-05
-3.05209e-05
-6.24169e-05
-6.39791e-05
-2.67788e-05
-3.57972e-05
-4.76997e-05
-4.71948e-05
-3.57972e-05
-3.83398e-05
-4.71948e-05
-4.9693e-05
-2.1183e-05
-2.67789e-05
-4.27308e-05
-4.76997e-05
2.84296e-05
3.11987e-05
6.90069e-07
-3.69353e-05
6.90069e-07
-3.69353e-05
-6.65073e-06
7.46906e-06
0.000164656
-0.000136292
-5.76509e-05
4.68186e-05
-0.000136292
2.84296e-05
4.68186e-05
6.90063e-07
4.68186e-05
6.90063e-07
1.57459e-05
-6.65073e-06
-5.76509e-05
4.68186e-05
-1.24206e-05
1.57459e-05
-0.00137355
-4.28593e-05
0.000499529
2.64753e-05
-4.28594e-05
0.000164656
2.64753e-05
-5.76509e-05
2.64753e-05
-5.76509e-05
-2.46099e-06
-1.24206e-05
0.000499529
2.64753e-05
9.73609e-05
-2.46099e-06
0.00233292
0.0030432
-0.000872837
-0.00110755
0.0030432
-0.00137355
-0.00110755
0.000499529
-0.00110755
0.000499529
-0.000195855
9.73609e-05
-0.000872837
-0.00110755
-0.000113764
-0.000195855
0.000646146
0.0010112
-0.000237587
-0.000381497
0.0010112
0.00233292
-0.000381497
-0.000872837
-0.000381497
-0.000872837
-3.23844e-05
-0.000113764
-0.000237587
-0.000381497
-4.66557e-05
-3.23844e-05
0.000664789
0.000612916
-0.00024731
-0.000220506
0.000612916
0.000646146
-0.000220506
-0.000237587
-0.000220505
-0.000237587
-4.17855e-05
-4.66557e-05
-0.000247311
-0.000220506
-3.05209e-05
-4.17855e-05
0.000636668
0.000618458
-0.00023578
-0.000230918
0.000618458
0.000664788
-0.000230917
-0.00024731
-0.000230918
-0.00024731
-2.84058e-05
-3.05209e-05
-0.00023578
-0.000230918
-3.83398e-05
-2.84058e-05
0.000526795
0.000608313
-0.00019574
-0.000222384
0.000608313
0.000636668
-0.000222384
-0.00023578
-0.000222384
-0.00023578
-3.57972e-05
-3.83398e-05
-0.00019574
-0.000222384
-2.67788e-05
-3.57972e-05
0.000460189
0.000526795
-0.000168012
-0.00019574
-0.000168012
-0.00019574
-2.1183e-05
-2.67788e-05
-6.67554e-05
2.10014e-05
2.84296e-05
3.11987e-05
0.000716245
-0.000611165
-0.00034451
0.000308327
-0.000611165
0.000159976
0.000308327
-6.67554e-05
0.000308327
-6.67554e-05
-0.000136292
2.84296e-05
-0.00034451
0.000308327
0.000164656
-0.000136292
-0.00534549
-9.86516e-05
0.00295216
0.00013447
-9.86516e-05
0.000716245
0.00013447
-0.00034451
0.00013447
-0.00034451
-4.28593e-05
0.000164656
0.00295216
0.00013447
-0.00137355
-4.28593e-05
0.0127238
0.0144167
-0.00463651
-0.00620697
0.0144167
-0.00534549
-0.00620697
0.00295216
-0.00620697
0.00295216
0.0030432
-0.00137355
-0.0046365
-0.00620697
0.00233292
0.0030432
0.00854722
0.00924704
-0.00106518
-0.00188283
0.00924704
0.0127238
-0.00188283
-0.00463651
-0.00188283
-0.0046365
0.0010112
0.00233292
-0.00106518
-0.00188283
0.000646146
0.0010112
0.00872741
0.00835144
-0.00102435
-0.000953967
0.00835144
0.00854722
-0.000953968
-0.00106518
-0.000953967
-0.00106518
0.000612915
0.000646146
-0.00102435
-0.000953968
0.000664788
0.000612915
0.00872317
0.00832366
-0.000971335
-0.000925489
0.00832366
0.00872741
-0.000925489
-0.00102435
-0.000925489
-0.00102435
0.000618458
0.000664788
-0.000971335
-0.000925489
0.000636668
0.000618458
0.00861366
0.00835335
-0.000753573
-0.000890341
0.00835335
0.00872317
-0.000890341
-0.000971335
-0.000890341
-0.000971336
0.000608313
0.000636668
-0.000753573
-0.000890341
0.000526795
0.000608313
0.00857835
0.00773348
-0.000953263
-0.000582708
0.00773348
0.00861366
-0.000582708
-0.000753573
-0.000582708
-0.000753573
0.000460189
0.000526795
0.00129155
-0.000299586
-0.000611165
0.000159976
-0.00107979
0.00129155
0.000716245
-0.000611165
0.00212883
-0.00107979
-9.86523e-05
0.000716245
0.0198175
0.00212882
-0.00534549
-9.8652e-05
0.0130108
0.0198175
0.0144167
-0.00534549
0.0806671
0.0130108
0.0127238
0.0144167
0.131856
0.0806671
0.00924704
0.0127238
0.146315
0.131856
0.00854722
0.00924704
0.147183
0.146315
0.00835144
0.00854721
0.146458
0.147183
0.00872741
0.00835144
0.740326
0.739938
0.147133
0.146315
0.146315
0.146458
0.00832366
0.00872741
0.147133
0.146315
0.00872317
0.00832366
0.742203
0.74078
0.151254
0.146732
0.74078
0.740326
0.146732
0.147133
0.146732
0.147133
0.00835335
0.00872317
0.151254
0.146732
0.00861366
0.00835335
0.743707
0.742203
0.150436
0.151254
0.150436
0.151254
0.00773348
0.00861366
0.146776
0.150436
0.00857835
0.00773348
1.48193e-06
4.05474e-06
-7.25807e-07
-1.23609e-06
4.05474e-06
-2.60247e-06
-1.23609e-06
8.86572e-07
-2.60247e-06
1.56598e-06
8.86572e-07
-5.28881e-07
1.56598e-06
-9.69389e-07
-5.2888e-07
3.17651e-07
-9.69389e-07
-7.64307e-07
3.17651e-07
2.64819e-07
-1.22311e-06
-1.62939e-05
5.05251e-06
3.56154e-06
-1.62939e-05
-7.25807e-07
3.56154e-06
1.58875e-06
-7.25808e-07
-1.23609e-06
1.58875e-06
-5.9628e-07
-1.23609e-06
8.86572e-07
-5.9628e-07
2.96432e-07
8.86572e-07
-5.2888e-07
2.96432e-07
-1.70322e-07
-5.2888e-07
3.17651e-07
-1.70322e-07
1.14087e-07
3.17651e-07
2.64819e-07
1.14087e-07
8.14699e-08
5.05251e-06
3.56154e-06
-1.00037e-06
-2.7876e-06
3.56154e-06
1.58875e-06
-2.7876e-06
-9.45513e-07
1.58875e-06
-5.9628e-07
-9.45513e-07
1.51258e-07
-5.9628e-07
2.96432e-07
1.51258e-07
-4.4492e-08
2.96432e-07
-1.70322e-07
-4.4492e-08
2.31562e-08
-1.70322e-07
1.14087e-07
2.31562e-08
-1.54599e-08
1.14087e-07
8.14699e-08
-1.54599e-08
-7.08727e-09
2.16619e-07
4.05076e-06
-2.36625e-06
1.68354e-06
4.05076e-06
-1.00037e-06
1.68354e-06
-7.1259e-08
-1.00037e-06
-9.45513e-07
-7.12589e-08
1.24802e-06
-9.45513e-07
1.51258e-07
1.24802e-06
-5.35816e-07
1.51258e-07
-4.4492e-08
-5.35816e-07
2.80976e-07
-4.4492e-08
2.31562e-08
2.80976e-07
-1.59521e-07
2.31562e-08
-1.54599e-08
-1.59521e-07
9.78427e-08
-1.54599e-08
-7.08727e-09
9.78427e-08
7.23364e-08
-4.36054e-07
-3.84934e-07
-5.24037e-06
1.1429e-06
-3.84934e-07
-8.33598e-07
1.1429e-06
1.36105e-07
-8.33599e-07
4.93318e-07
1.36105e-07
1.70635e-07
4.93318e-07
-2.36625e-06
1.70635e-07
8.94095e-07
-2.36625e-06
1.68354e-06
8.94095e-07
5.10226e-07
1.68354e-06
-7.12591e-08
5.10226e-07
-2.66285e-07
-7.12591e-08
1.24802e-06
-2.66285e-07
-3.47643e-07
1.24802e-06
-5.35816e-07
-3.47643e-07
1.18964e-07
-5.35816e-07
2.80976e-07
1.18964e-07
-4.77055e-08
2.80976e-07
-1.59521e-07
-4.77055e-08
2.67699e-08
-1.59521e-07
9.78427e-08
2.67699e-08
-1.57519e-08
9.78427e-08
7.23364e-08
-1.57519e-08
-1.25018e-08
-5.24037e-06
1.1429e-06
6.5829e-06
4.65388e-06
1.1429e-06
1.36105e-07
4.65388e-06
-3.26302e-06
1.36105e-07
1.70635e-07
-3.26302e-06
-2.63616e-06
1.70635e-07
8.94095e-07
-2.63616e-06
1.34205e-06
8.94095e-07
-2.66285e-07
1.34205e-06
-7.68962e-07
-2.66285e-07
-3.47643e-07
-7.68962e-07
6.55573e-07
-3.47643e-07
1.18964e-07
6.55573e-07
-3.00056e-07
1.18964e-07
-4.77055e-08
-3.00056e-07
1.62193e-07
-4.77055e-08
2.67699e-08
1.62193e-07
-9.11186e-08
2.67699e-08
-1.57519e-08
-9.11186e-08
5.41719e-08
-1.57519e-08
-1.25018e-08
5.41719e-08
4.10417e-08
6.58289e-06
-3.26302e-06
-2.00194e-06
8.74064e-07
-3.26302e-06
1.34205e-06
8.74065e-07
-2.5108e-07
1.34205e-06
-7.68962e-07
-2.5108e-07
1.73336e-07
-7.68962e-07
6.55573e-07
1.73336e-07
-2.22808e-07
6.55574e-07
-3.00056e-07
-2.22808e-07
9.41695e-08
-3.00056e-07
1.62193e-07
9.41695e-08
-4.9403e-08
1.62193e-07
-9.11186e-08
-4.9403e-08
2.76384e-08
-9.11186e-08
5.41719e-08
2.76384e-08
-1.64863e-08
5.41719e-08
4.10417e-08
-1.64863e-08
-1.30714e-08
8.74065e-07
-2.5108e-07
-4.60838e-07
1.27876e-07
-2.5108e-07
1.73336e-07
1.27876e-07
-8.70352e-08
1.73336e-07
-2.22808e-07
-8.70352e-08
1.17565e-07
-2.22808e-07
9.41695e-08
1.17565e-07
-5.02062e-08
9.41695e-08
-4.9403e-08
-5.02062e-08
2.59123e-08
-4.94029e-08
2.76384e-08
2.59124e-08
-1.44898e-08
2.76384e-08
-1.64863e-08
-1.44898e-08
8.54964e-09
-1.64863e-08
-1.30714e-08
8.54964e-09
6.6661e-09
-4.60838e-07
1.27876e-07
2.63903e-07
-7.08734e-08
1.27876e-07
-8.70352e-08
-7.08734e-08
4.811e-08
-8.70353e-08
1.17565e-07
4.811e-08
-6.72227e-08
1.17565e-07
-5.02062e-08
-6.72227e-08
2.87583e-08
-5.02062e-08
2.59123e-08
2.87583e-08
-1.46224e-08
2.59123e-08
-1.44898e-08
-1.46224e-08
8.20863e-09
-1.44898e-08
8.54964e-09
8.20863e-09
-4.8679e-09
8.54964e-09
6.6661e-09
-4.8679e-09
-3.79246e-09
2.63903e-07
-7.08734e-08
-1.61959e-07
4.01783e-08
-7.08734e-08
4.811e-08
4.01783e-08
-2.66399e-08
4.811e-08
-6.72227e-08
-2.66398e-08
4.05514e-08
-6.72227e-08
2.87583e-08
4.05514e-08
-1.77881e-08
2.87583e-08
-1.46224e-08
-1.77881e-08
8.64296e-09
-1.46224e-08
8.20864e-09
8.64296e-09
-4.94467e-09
8.20863e-09
-4.8679e-09
-4.94467e-09
3.01392e-09
-4.8679e-09
-3.79246e-09
3.01392e-09
2.22608e-09
-1.61959e-07
4.01784e-08
-1.37235e-07
3.55619e-08
4.01783e-08
-2.66399e-08
3.55619e-08
-2.4025e-08
-2.66398e-08
4.05514e-08
-2.4025e-08
3.48934e-08
4.05514e-08
-1.77881e-08
3.48934e-08
-1.47977e-08
-1.77881e-08
8.64296e-09
-1.47977e-08
7.429e-09
8.64297e-09
-4.94467e-09
7.429e-09
-4.12007e-09
-4.94468e-09
3.01392e-09
-4.12007e-09
2.38261e-09
3.01392e-09
2.22608e-09
2.38261e-09
1.89624e-09
-4.95203e-07
3.05663e-06
-8.33599e-07
4.93318e-07
3.05663e-06
2.16619e-07
4.93318e-07
-2.36625e-06
-1.59409e-06
1.33686e-06
-4.36055e-07
-3.84934e-07
1.33686e-06
-4.95203e-07
-3.84934e-07
-8.33599e-07
3.11987e-05
-1.59409e-06
-3.69353e-05
5.79409e-06
-3.69353e-05
5.79409e-06
7.46906e-06
-4.36055e-07
2.38091e-06
-1.12032e-05
2.16619e-07
4.05076e-06
-1.12032e-05
5.05251e-06
4.05076e-06
-1.00037e-06
6.08048e-06
3.76586e-06
1.17355e-06
-8.68622e-06
1.17355e-06
-8.68622e-06
-4.95203e-07
3.05663e-06
3.76586e-06
2.38091e-06
-8.68622e-06
4.5217e-06
-8.68622e-06
4.5217e-06
3.05663e-06
2.16619e-07
2.86089e-05
-1.00792e-05
-3.31025e-06
4.39717e-06
-1.00792e-05
6.08048e-06
4.39716e-06
1.17355e-06
4.39717e-06
1.17355e-06
1.33686e-06
-4.95203e-07
-3.31025e-06
4.39717e-06
-1.59409e-06
1.33686e-06
0.000159976
-4.79389e-05
-6.67554e-05
2.10014e-05
-4.79389e-05
2.86089e-05
2.10014e-05
-3.31025e-06
2.10014e-05
-3.31025e-06
3.11987e-05
-1.59409e-06
-3.77986e-06
1.68519e-05
-5.26942e-06
1.20971e-05
-5.26942e-06
1.20971e-05
2.38091e-06
-1.12032e-05
1.68519e-05
-1.22311e-06
1.20971e-05
2.3144e-06
1.20971e-05
2.3144e-06
-1.12032e-05
5.05251e-06
1.43324e-05
-3.56696e-06
-1.29878e-05
3.71153e-06
-3.56696e-06
-3.77985e-06
3.71153e-06
-5.26942e-06
3.71153e-06
-5.26942e-06
3.76586e-06
2.38091e-06
-1.29878e-05
3.71153e-06
6.08048e-06
3.76586e-06
5.09718e-05
-2.43807e-05
-4.7131e-05
3.23927e-05
-2.43807e-05
1.43325e-05
3.23927e-05
-1.29878e-05
3.23927e-05
-1.29878e-05
-1.00792e-05
6.08048e-06
-4.71311e-05
3.23927e-05
2.86089e-05
-1.00792e-05
0.00048065
-0.000108863
-0.000299585
0.000131417
-0.000108863
5.09718e-05
0.000131417
-4.71311e-05
0.000131417
-4.71311e-05
-4.79389e-05
2.86089e-05
-0.000299586
0.000131417
0.000159976
-4.79389e-05
-1.00016e-05
3.67871e-05
-1.22311e-06
-1.62939e-05
3.67871e-05
1.48194e-06
-1.62939e-05
-7.25807e-07
3.90947e-05
2.50727e-05
-1.06719e-05
-4.22178e-05
-1.06719e-05
-4.22178e-05
-3.77985e-06
1.68519e-05
2.50727e-05
-1.00016e-05
-4.22178e-05
-2.24971e-06
-4.22178e-05
-2.24971e-06
1.68519e-05
-1.22311e-06
0.000228115
-0.000107777
-9.65298e-05
4.26735e-05
-0.000107777
3.90947e-05
4.26735e-05
-1.06719e-05
4.26735e-05
-1.06719e-05
-3.56696e-06
-3.77985e-06
-9.65299e-05
4.26735e-05
1.43324e-05
-3.56696e-06
0.000957531
-0.000432269
-0.000341664
0.000200783
-0.000432269
0.000228115
0.000200783
-9.65299e-05
0.000200783
-9.65298e-05
-2.43807e-05
1.43325e-05
-0.000341664
0.000200783
5.09718e-05
-2.43807e-05
0.00100533
-0.000341664
-0.000108863
5.09718e-05
1.79584e-05
-6.31206e-05
-2.19249e-05
-4.90111e-05
-2.19249e-05
-4.90111e-05
-1.00016e-05
3.67871e-05
-6.31206e-05
-1.8481e-06
-4.90111e-05
-6.6846e-07
-4.90111e-05
-6.6846e-07
3.67871e-05
1.48193e-06
1.95814e-05
-1.07919e-05
-0.000166462
5.33109e-05
-1.07919e-05
1.79584e-05
5.33109e-05
-2.19249e-05
5.33109e-05
-2.19249e-05
2.50727e-05
-1.00016e-05
-0.000166462
5.33109e-05
3.90947e-05
2.50727e-05
0.000121981
-4.01418e-05
-0.000689899
0.000347969
-4.01418e-05
1.95814e-05
0.000347969
-0.000166462
0.000347969
-0.000166462
-0.000107777
3.90947e-05
-0.000689899
0.000347969
0.000228115
-0.000107777
2.25479e-05
0.000121981
0.00141193
-0.000689899
0.00141193
-0.000689899
-0.000432269
0.000228115
-0.00209338
0.00141193
0.000957532
-0.000432269
0.000511503
-0.000242379
1.95814e-05
-1.07919e-05
-0.00099492
0.000511503
-4.01417e-05
1.95814e-05
0.00214594
-0.00099492
0.000121981
-4.01418e-05
0.998166
0.998665
0.999022
0.998907
0.999898
0.99972
1.00039
1.00034
0.99972
1.00007
1.00034
1.00049
1.00007
0.999334
1.00049
1.00018
0.999334
1.00089
1.00018
1.00038
1.00089
0.999022
1.00038
0.998785
0.999022
0.998907
0.998785
0.999485
1.00039
1.00034
0.999209
0.999208
1.00034
1.00049
0.999208
0.999254
1.00049
1.00018
0.999254
0.999224
1.00018
1.00038
0.999224
0.999949
1.00038
0.998785
0.999949
1.00117
0.998785
0.999485
1.00117
1.00015
0.999209
0.999208
1.00146
1.00156
0.999208
0.999254
1.00156
1.00125
0.999254
0.999224
1.00125
1.0016
0.999224
0.999949
1.0016
0.999627
0.999949
1.00117
0.999627
0.998281
1.00117
1.00123
0.998281
0.995226
1.00123
1.00015
0.995226
0.999627
1.00146
1.00156
0.997532
0.997013
1.00156
1.00125
0.997013
0.998306
1.00125
1.0016
0.998306
0.996602
1.0016
0.999627
0.996602
1.00064
0.999627
0.99955
1.00064
0.999326
0.99955
0.998281
0.999326
1.00511
0.998281
0.995226
1.00511
1.00654
0.995226
0.999627
1.00654
0.996668
0.997532
0.997114
1.0047
1.00449
0.997114
0.997013
1.00449
1.00449
0.997013
0.997932
1.00449
1.00481
0.997932
0.998306
1.00481
1.00534
0.998306
0.996967
1.00534
1.00596
0.996967
0.996602
1.00596
1.00613
0.996602
0.999264
1.00613
1.00461
0.999264
1.00064
1.00461
0.999816
1.00064
0.999326
0.999816
0.995812
0.999326
1.00511
0.995812
0.995282
1.0047
1.00449
0.993698
0.993687
1.00449
1.00449
0.993687
0.993724
1.00449
1.00481
0.993724
0.993736
1.00481
1.00534
0.993736
0.993468
1.00534
1.00596
0.993468
0.992922
1.00596
1.00613
0.992922
0.993371
1.00613
1.00461
0.993371
0.994719
1.00461
0.999816
0.994719
1.00002
0.00528515
-0.00147287
-0.00107979
0.00129155
-0.00147287
0.00048065
0.00129155
-0.000299585
0.102338
0.0268817
0.0198175
0.00212883
0.0268817
0.00528515
0.00212883
-0.00107979
0.657161
0.427772
0.0806671
0.0130108
0.427772
0.102338
0.0130108
0.0198175
0.741141
0.724056
0.146315
0.131856
0.724056
0.657161
0.131856
0.0806671
0.741082
0.74245
0.146458
0.147183
0.74245
0.741141
0.147183
0.146315
0.739938
0.741082
0.146315
0.146458
0.0139748
-0.000667689
-0.000755124
0.00100533
-0.000667687
0.000957532
0.00100533
-0.000341664
-0.000755123
0.00100533
0.00048065
-0.000108863
0.32312
0.0564222
0.0341764
0.0121726
0.0564222
0.0139748
0.0121726
-0.000755124
0.0121726
-0.000755124
-0.00147287
0.00048065
0.0341764
0.0121726
0.00528515
-0.00147287
0.948643
0.728612
0.677627
0.237525
0.728612
0.32312
0.237525
0.0341764
0.237525
0.0341764
0.0268817
0.00528515
0.677627
0.237525
0.102338
0.0268817
1.00002
0.997232
0.967118
0.85505
0.967118
0.85505
0.657161
0.427772
0.997232
0.948643
0.85505
0.677627
0.85505
0.677627
0.427772
0.102338
0.993371
0.994719
0.741141
0.724056
0.994719
1.00002
0.724056
0.657161
0.993468
0.992923
0.741082
0.74245
0.992923
0.993371
0.74245
0.741141
0.993724
0.993736
0.740326
0.739938
0.993736
0.993468
0.739938
0.741082
0.993698
0.993687
0.742203
0.74078
0.993687
0.993724
0.74078
0.740326
0.00174171
2.25479e-05
-0.00209338
0.00141193
0.228011
0.0190722
0.0539423
0.0107713
0.0190722
0.00174171
0.0107713
-0.00209338
0.0107713
-0.00209338
-0.000667689
0.000957531
0.0539423
0.0107713
0.0139748
-0.000667688
0.973838
0.796487
0.829053
0.407052
0.796487
0.228011
0.407052
0.0539423
0.407052
0.0539423
0.0564222
0.0139748
0.829053
0.407052
0.32312
0.0564222
0.995282
0.991929
1.00207
1.00014
1.00207
1.00014
0.948643
0.728612
0.991928
0.973838
1.00014
0.829053
1.00014
0.829053
0.728612
0.32312
0.999816
0.995812
1.00002
0.997232
0.995812
0.995282
0.997232
0.948643
0.000158163
0.000165131
0.00214594
-0.00099492
0.0381522
0.00491891
0.0144328
-0.00294911
0.00491891
0.000158163
-0.00294911
0.00214594
-0.00294911
0.00214594
2.25478e-05
0.000121981
0.0144328
-0.00294911
0.00174171
2.25478e-05
0.785499
0.259886
0.472934
0.0550527
0.259886
0.0381522
0.0550527
0.0144328
0.0550527
0.0144328
0.0190722
0.00174171
0.472934
0.0550527
0.228011
0.0190722
0.996668
0.974592
0.992124
0.947135
0.992124
0.947135
0.973838
0.796486
0.974592
0.785499
0.947135
0.472934