# vtk DataFile Version 2.0
Hex test
ASCII
DATASET UNSTRUCTURED_GRID
POINTS 8916 float
8 -12 0
8 -8.16667 0
10 -12 0
10 -8.16667 0
8 -8.16667 0
8 -6 0
10 -8.16667 0
10 -6 0
8 -6 0
8 -4 0
10 -6 0
10 -4 0
8 -4 0
8 -2 0
10 -4 0
10 -2 0
8 -2 0
8 6.93889e-18 0
10 -2 0
10 6.93889e-18 0
8 3.46945e-17 0
8 2 0
10 3.46945e-17 0
10 2 0
10 -12 0
10 -8.16667 0
12 -12 0
12 -8.16667 0
10 -8.16667 0
10 -6 0
12 -8.16667 0
12 -6 0
10 -6 0
10 -4 0
12 -6 0
12 -4 0
10 -4 0
10 -2 0
12 -4 0
12 -2 0
10 -2 0
10 6.93889e-18 0
12 -2 0
12 6.93889e-18 0
10 3.46945e-17 0
10 2 0
12 3.46945e-17 0
12 2 0
12 -12 0
12 -8.16667 0
14 -12 0
14 -8.16667 0
12 -8.16667 0
12 -6 0
14 -8.16667 0
14 -6 0
12 -6 0
12 -4 0
14 -6 0
14 -4 0
12 -4 0
12 -2 0
14 -4 0
14 -2 0
12 -2 0
12 6.93889e-18 0
14 -2 0
14 6.93889e-18 0
12 3.46945e-17 0
12 2 0
14 3.46945e-17 0
14 2 0
14 -12 0
14 -8.16667 0
16 -12 0
16 -8.16667 0
14 -8.16667 0
14 -6 0
16 -8.16667 0
16 -6 0
14 -6 0
14 -4 0
16 -6 0
16 -4 0
14 -4 0
14 -2 0
16 -4 0
16 -2 0
14 -2 0
14 6.93889e-18 0
16 -2 0
16 6.93889e-18 0
14 3.46945e-17 0
14 2 0
16 3.46945e-17 0
16 2 0
16 -12 0
16 -8.16667 0
18 -12 0
18 -8.16667 0
16 -8.16667 0
16 -6 0
18 -8.16667 0
18 -6 0
16 -6 0
16 -4 0
18 -6 0
18 -4 0
16 -4 0
16 -2 0
18 -4 0
18 -2 0
16 -2 0
16 6.93889e-18 0
18 -2 0
18 6.93889e-18 0
16 3.46945e-17 0
16 2 0
18 3.46945e-17 0
18 2 0
18 -6 0
18 -4 0
20 -6 0
20 -4 0
18 -4 0
18 -2 0
20 -4 0
20 -2 0
18 -2 0
18 6.93889e-18 0
20 -2 0
20 6.93889e-18 0
18 3.46945e-17 0
18 2 0
20 3.46945e-17 0
20 2 0
20 -2 0
20 6.93889e-18 0
22 -2 0
22 6.93889e-18 0
20 3.46945e-17 0
20 1 0
22 3.46945e-17 0
22 1 0
20 1 0
20 2 0
22 1 0
22 2 0
22 4.16334e-17 0
22 1 0
24 6.245e-17 0
24 1 0
22 1 0
22 2 0
24 1 0
24 2 0
26 4 0
26 5 0
27 4 0
27 5 0
26 5 0
26 6 0
27 5 0
27 6 0
26 3 0
26 4 0
27 3 0
27 4 0
24 6 0
24 7 0
25 6 0
25 7 0
24 7 0
24 8 0
25 7 0
25 8 0
25 6 0
25 7 0
26 6 0
26 7 0
24 4 0
24 5 0
25 4 0
25 5 0
24 5 0
24 6 0
25 5 0
25 6 0
25 5 0
25 6 0
26 5 0
26 6 0
25 4 0
25 5 0
26 4 0
26 5 0
24 2 0
24 3 0
25 2 0
25 3 0
25 2 0
25 3 0
26 2 0
26 3 0
24 3 0
24 4 0
25 3 0
25 4 0
25 3 0
25 4 0
26 3 0
26 4 0
22 8 0
22 9 0
23 8 0
23 9 0
23 8 0
23 9 0
24 8 0
24 9 0
22 6 0
22 7 0
23 6 0
23 7 0
22 7 0
22 8 0
23 7 0
23 8 0
23 7 0
23 8 0
24 7 0
24 8 0
23 6 0
23 7 0
24 6 0
24 7 0
22 4 0
22 5 0
23 4 0
23 5 0
22 5 0
22 6 0
23 5 0
23 6 0
23 5 0
23 6 0
24 5 0
24 6 0
23 4 0
23 5 0
24 4 0
24 5 0
22 2 0
22 3 0
23 2 0
23 3 0
23 2 0
23 3 0
24 2 0
24 3 0
22 3 0
22 4 0
23 3 0
23 4 0
23 3 0
23 4 0
24 3 0
24 4 0
20 8 0
20 9 0
21 8 0
21 9 0
21 8 0
21 9 0
22 8 0
22 9 0
20 6 0
20 7 0
21 6 0
21 7 0
20 7 0
20 8 0
21 7 0
21 8 0
21 7 0
21 8 0
22 7 0
22 8 0
21 6 0
21 7 0
22 6 0
22 7 0
20 4 0
20 5 0
21 4 0
21 5 0
20 5 0
20 6 0
21 5 0
21 6 0
21 5 0
21 6 0
22 5 0
22 6 0
21 4 0
21 5 0
22 4 0
22 5 0
20 2 0
20 3 0
21 2 0
21 3 0
21 2 0
21 3 0
22 2 0
22 3 0
20 3 0
20 4 0
21 3 0
21 4 0
21 3 0
21 4 0
22 3 0
22 4 0
18 8 0
18 9 0
19 8 0
19 9 0
19 9 0
19 10 0
20 9 0
20 10 0
19 8 0
19 9 0
20 8 0
20 9 0
18 6 0
18 7 0
19 6 0
19 7 0
18 7 0
18 8 0
19 7 0
19 8 0
19 7 0
19 8 0
20 7 0
20 8 0
19 6 0
19 7 0
20 6 0
20 7 0
18 4 0
18 5 0
19 4 0
19 5 0
18 5 0
18 6 0
19 5 0
19 6 0
19 5 0
19 6 0
20 5 0
20 6 0
19 4 0
19 5 0
20 4 0
20 5 0
18 2 0
18 3 0
19 2 0
19 3 0
19 2 0
19 3 0
20 2 0
20 3 0
18 3 0
18 4 0
19 3 0
19 4 0
19 3 0
19 4 0
20 3 0
20 4 0
16 8 0
16 9 0
17 8 0
17 9 0
17 8 0
17 9 0
18 8 0
18 9 0
16 6 0
16 7 0
17 6 0
17 7 0
16 7 0
16 8 0
17 7 0
17 8 0
17 7 0
17 8 0
18 7 0
18 8 0
17 6 0
17 7 0
18 6 0
18 7 0
16 4 0
16 5 0
17 4 0
17 5 0
16 5 0
16 6 0
17 5 0
17 6 0
17 5 0
17 6 0
18 5 0
18 6 0
17 4 0
17 5 0
18 4 0
18 5 0
16 2 0
16 3 0
17 2 0
17 3 0
17 2 0
17 3 0
18 2 0
18 3 0
16 3 0
16 4 0
17 3 0
17 4 0
17 3 0
17 4 0
18 3 0
18 4 0
15 8 0
15 9 0
16 8 0
16 9 0
14 6 0
14 7 0
15 6 0
15 7 0
14 7 0
14 8 0
15 7 0
15 8 0
15 7 0
15 8 0
16 7 0
16 8 0
15 6 0
15 7 0
16 6 0
16 7 0
14 4 0
14 5 0
15 4 0
15 5 0
14 5 0
14 6 0
15 5 0
15 6 0
15 5 0
15 6 0
16 5 0
16 6 0
15 4 0
15 5 0
16 4 0
16 5 0
14 2 0
14 3 0
15 2 0
15 3 0
15 2 0
15 3 0
16 2 0
16 3 0
14 3 0
14 4 0
15 3 0
15 4 0
15 3 0
15 4 0
16 3 0
16 4 0
12 6 0
12 7 0
13 6 0
13 7 0
12 7 0
12 8 0
13 7 0
13 8 0
13 7 0
13 8 0
14 7 0
14 8 0
13 6 0
13 7 0
14 6 0
14 7 0
12 4 0
12 5 0
13 4 0
13 5 0
12 5 0
12 6 0
13 5 0
13 6 0
13 5 0
13 6 0
14 5 0
14 6 0
13 4 0
13 5 0
14 4 0
14 5 0
12 2 0
12 3 0
13 2 0
13 3 0
13 2 0
13 3 0
14 2 0
14 3 0
12 3 0
12 4 0
13 3 0
13 4 0
13 3 0
13 4 0
14 3 0
14 4 0
10 2 0
10 3 0
11 2 0
11 3 0
11 2 0
11 3 0
12 2 0
12 3 0
10 3 0
10 4 0
11 3 0
11 4 0
11 3 0
11 4 0
12 3 0
12 4 0
10 4 0
10 5 0
11 4 0
11 5 0
11 5 0
11 6 0
12 5 0
12 6 0
11 4 0
11 5 0
12 4 0
12 5 0
11 6 0
11 7 0
12 6 0
12 7 0
14 16 0
14 17 0
16 16 0
16 17 0
14 17 0
14 18 0
16 17 0
16 18 0
14 18 0
14 19 0
16 18 0
16 19 0
14 19 0
14 20 0
16 19 0
16 20 0
14 20 0
14 21 0
16 20 0
16 21 0
14 21 0
14 22 0
16 21 0
16 22 0
14 22 0
14 23 0
16 22 0
16 23 0
14 23 0
14 24 0
16 23 0
16 24 0
16 14 0
16 15 0
18 14 0
18 15 0
16 15 0
16 16 0
18 15 0
18 16 0
16 16 0
16 17 0
18 16 0
18 17 0
16 17 0
16 18 0
18 17 0
18 18 0
16 18 0
16 19 0
18 18 0
18 19 0
16 19 0
16 20 0
18 19 0
18 20 0
16 20 0
16 21 0
18 20 0
18 21 0
16 21 0
16 22 0
18 21 0
18 22 0
16 22 0
16 23 0
18 22 0
18 23 0
16 23 0
16 24 0
18 23 0
18 24 0
18 14 0
18 15 0
20 14 0
20 15 0
18 15 0
18 16 0
20 15 0
20 16 0
18 16 0
18 18 0
20 16 0
20 18 0
18 18 0
18 20 0
20 18 0
20 20 0
18 20 0
18 22 0
20 20 0
20 22 0
18 22 0
18 24 0
20 22 0
20 24 0
20 14 0
20 16 0
22 14 0
22 16 0
20 16 0
20 18 0
22 16 0
22 18 0
20 18 0
20 20 0
22 18 0
22 20 0
20 20 0
20 22 0
22 20 0
22 22 0
20 22 0
20 24 0
22 22 0
22 24 0
22 13 0
22 14 0
24 13 0
24 14 0
22 14 0
22 16 0
24 14 0
24 16 0
22 16 0
22 18 0
24 16 0
24 18 0
22 18 0
22 20 0
24 18 0
24 20 0
22 20 0
22 22 0
24 20 0
24 22 0
22 22 0
22 24 0
24 22 0
24 24 0
24 16 0
24 18 0
26 16 0
26 18 0
24 18 0
24 20 0
26 18 0
26 20 0
24 20 0
24 22 0
26 20 0
26 22 0
20 12 0
20 13 0
22 12 0
22 13 0
20 13 0
20 14 0
22 13 0
22 14 0
20 11 0
20 12 0
21 11 0
21 12 0
21 11 0
21 12 0
22 11 0
22 12 0
18 12 0
18 13 0
19 12 0
19 13 0
19 12 0
19 13 0
20 12 0
20 13 0
18 13 0
18 14 0
19 13 0
19 14 0
19 13 0
19 14 0
20 13 0
20 14 0
18 10 0
18 11 0
19 10 0
19 11 0
18 11 0
18 12 0
19 11 0
19 12 0
19 11 0
19 12 0
20 11 0
20 12 0
19 10 0
19 11 0
20 10 0
20 11 0
18 9 0
18 10 0
19 9 0
19 10 0
16 12 0
16 13 0
17 12 0
17 13 0
17 12 0
17 13 0
18 12 0
18 13 0
16 13 0
16 14 0
17 13 0
17 14 0
17 13 0
17 14 0
18 13 0
18 14 0
16 10 0
16 11 0
17 10 0
17 11 0
16 11 0
16 12 0
17 11 0
17 12 0
17 11 0
17 12 0
18 11 0
18 12 0
17 10 0
17 11 0
18 10 0
18 11 0
16 9 0
16 10 0
17 9 0
17 10 0
17 9 0
17 10 0
18 9 0
18 10 0
14 14 0
14 15 0
16 14 0
16 15 0
14 15 0
14 16 0
16 15 0
16 16 0
14 12 0
14 13 0
15 12 0
15 13 0
15 12 0
15 13 0
16 12 0
16 13 0
14 13 0
14 14 0
15 13 0
15 14 0
15 13 0
15 14 0
16 13 0
16 14 0
14 10 0
14 11 0
15 10 0
15 11 0
14 11 0
14 12 0
15 11 0
15 12 0
15 11 0
15 12 0
16 11 0
16 12 0
15 10 0
15 11 0
16 10 0
16 11 0
14 8 0
14 9 0
15 8 0
15 9 0
14 9 0
14 10 0
15 9 0
15 10 0
15 9 0
15 10 0
16 9 0
16 10 0
8 11 0
8 12 0
9 11 0
9 12 0
9 11 0
9 12 0
10 11 0
10 12 0
9 10 0
9 11 0
10 10 0
10 11 0
8 12 0
8 13 0
9 12 0
9 13 0
8 13 0
8 14 0
9 13 0
9 14 0
9 13 0
9 14 0
10 13 0
10 14 0
9 12 0
9 13 0
10 12 0
10 13 0
9 15 0
9 16 0
10 15 0
10 16 0
9 14 0
9 15 0
10 14 0
10 15 0
9 17 0
9 18 0
10 17 0
10 18 0
9 16 0
9 17 0
10 16 0
10 17 0
12 22 0
12 23 0
14 22 0
14 23 0
12 20 0
12 21 0
14 20 0
14 21 0
12 21 0
12 22 0
14 21 0
14 22 0
12 18 0
12 19 0
14 18 0
14 19 0
12 19 0
12 20 0
14 19 0
14 20 0
12 16 0
12 17 0
14 16 0
14 17 0
12 17 0
12 18 0
14 17 0
14 18 0
12 14 0
12 15 0
13 14 0
13 15 0
13 14 0
13 15 0
14 14 0
14 15 0
12 15 0
12 16 0
13 15 0
13 16 0
13 15 0
13 16 0
14 15 0
14 16 0
12 12 0
12 13 0
13 12 0
13 13 0
12 13 0
12 14 0
13 13 0
13 14 0
13 13 0
13 14 0
14 13 0
14 14 0
13 12 0
13 13 0
14 12 0
14 13 0
12 10 0
12 11 0
13 10 0
13 11 0
12 11 0
12 12 0
13 11 0
13 12 0
13 11 0
13 12 0
14 11 0
14 12 0
13 10 0
13 11 0
14 10 0
14 11 0
12 8 0
12 9 0
13 8 0
13 9 0
12 9 0
12 10 0
13 9 0
13 10 0
13 9 0
13 10 0
14 9 0
14 10 0
13 8 0
13 9 0
14 8 0
14 9 0
10 9 0
10 10 0
11 9 0
11 10 0
11 9 0
11 10 0
12 9 0
12 10 0
11 8 0
11 9 0
12 8 0
12 9 0
10 10 0
10 11 0
11 10 0
11 11 0
10 11 0
10 12 0
11 11 0
11 12 0
11 11 0
11 12 0
12 11 0
12 12 0
11 10 0
11 11 0
12 10 0
12 11 0
10 12 0
10 13 0
11 12 0
11 13 0
10 13 0
10 14 0
11 13 0
11 14 0
11 13 0
11 14 0
12 13 0
12 14 0
11 12 0
11 13 0
12 12 0
12 13 0
10 14 0
10 15 0
11 14 0
11 15 0
10 15 0
10 16 0
11 15 0
11 16 0
11 15 0
11 16 0
12 15 0
12 16 0
11 14 0
11 15 0
12 14 0
12 15 0
10 16 0
10 17 0
11 16 0
11 17 0
10 17 0
10 18 0
11 17 0
11 18 0
11 17 0
11 18 0
12 17 0
12 18 0
11 16 0
11 17 0
12 16 0
12 17 0
10 18 0
10 19 0
11 18 0
11 19 0
10 19 0
10 20 0
11 19 0
11 20 0
11 19 0
11 20 0
12 19 0
12 20 0
11 18 0
11 19 0
12 18 0
12 19 0
10 20 0
10 21 0
11 20 0
11 21 0
11 21 0
11 22 0
12 21 0
12 22 0
11 20 0
11 21 0
12 20 0
12 21 0
11 22 0
11 23 0
12 22 0
12 23 0
-12 -12 0
-12 -8.16667 0
-8.16667 -12 0
-8.16667 -8.16667 0
-12 -8.16667 0
-12 -6 0
-8.16667 -8.16667 0
-8.16667 -6 0
-12 -6 0
-12 -4 0
-8.16667 -6 0
-8.16667 -4 0
-12 -4 0
-12 -2 0
-8.16667 -4 0
-8.16667 -2 0
-12 -2 0
-12 0 0
-8.16667 -2 0
-8.16667 0 0
-12 0 0
-12 2 0
-8.16667 0 0
-8.16667 2 0
-12 2 0
-12 4 0
-8.16667 2 0
-8.16667 4 0
-12 4 0
-12 6 0
-8.16667 4 0
-8.16667 6 0
-12 6 0
-12 8 0
-8.16667 6 0
-8.16667 8 0
-8.16667 -12 0
-8.16667 -8.16667 0
-6 -12 0
-6 -8.16667 0
-8.16667 -8.16667 0
-8.16667 -6 0
-6 -8.16667 0
-6 -6 0
-8.16667 -6 0
-8.16667 -4 0
-6 -6 0
-6 -4 0
-8.16667 -4 0
-8.16667 -2 0
-6 -4 0
-6 -2 0
-8.16667 -2 0
-8.16667 -2.77556e-17 0
-6 -2 0
-6 -2.77556e-17 0
-8.16667 -1.38778e-17 0
-8.16667 2 0
-6 2.77556e-17 0
-6 2 0
-8.16667 2 0
-8.16667 4 0
-6 2 0
-6 4 0
-8.16667 4 0
-8.16667 6 0
-6 4 0
-6 6 0
-8.16667 6 0
-8.16667 8 0
-6 6 0
-6 8 0
-6 -12 0
-6 -8.16667 0
-4 -12 0
-4 -8.16667 0
-6 -8.16667 0
-6 -6 0
-4 -8.16667 0
-4 -6 0
-6 -6 0
-6 -4 0
-4 -6 0
-4 -4 0
-6 -4 0
-6 -2 0
-4 -4 0
-4 -2 0
-6 -2 0
-6 -2.77556e-17 0
-4 -2 0
-4 -2.77556e-17 0
-6 2.77556e-17 0
-6 2 0
-4 2.77556e-17 0
-4 2 0
-6 2 0
[...]
POINT_DATA 8916
SCALARS phi float 1
LOOKUP_TABLE default
-7.03554e-06
-6.46556e-06
6.29014e-05
6.03518e-05
-6.46556e-06
9.71022e-06
6.03518e-05
-9.98787e-05
9.71022e-06
-1.60492e-05
-9.98787e-05
0.000170773
-1.60492e-05
2.78321e-05
0.000170773
-0.000303424
2.78321e-05
-3.53546e-05
-0.000303424
0.000417235
-3.53547e-05
-5.47083e-05
0.000417235
0.000443352
6.29014e-05
6.03518e-05
1.77862e-05
1.85235e-05
6.03518e-05
-9.98787e-05
1.85235e-05
-2.86005e-05
-9.98787e-05
0.000170773
-2.86005e-05
4.70832e-05
0.000170773
-0.000303424
4.70832e-05
-7.72387e-05
-0.000303424
0.000417235
-7.72387e-05
9.36368e-05
0.000417235
0.000443352
9.36369e-05
0.000314856
1.77862e-05
1.85235e-05
-1.72861e-06
-1.91913e-06
1.85235e-05
-2.86005e-05
-1.91914e-06
2.96664e-06
-2.86005e-05
4.70832e-05
2.96664e-06
-4.2867e-06
4.70832e-05
-7.72387e-05
-4.2867e-06
2.67824e-06
-7.72387e-05
9.36368e-05
2.67824e-06
-9.04489e-06
9.36368e-05
0.000314856
-9.04489e-06
-7.93824e-06
-1.72861e-06
-1.91914e-06
3.32037e-06
3.80607e-06
-1.91914e-06
2.96664e-06
3.80607e-06
-5.30087e-06
2.96664e-06
-4.2867e-06
-5.30086e-06
8.48989e-06
-4.2867e-06
2.67824e-06
8.48989e-06
-6.43638e-06
2.67824e-06
-9.04488e-06
-6.43638e-06
2.1508e-05
-9.04488e-06
-7.93824e-06
2.1508e-05
1.97785e-05
3.32037e-06
3.80607e-06
-1.49679e-05
-1.22548e-05
3.80607e-06
-5.30087e-06
-1.22548e-05
2.63526e-05
-5.30087e-06
8.48989e-06
2.63526e-05
-4.80296e-05
8.48989e-06
-6.43639e-06
-4.80296e-05
8.30644e-05
-6.43639e-06
2.1508e-05
8.30644e-05
-0.000124548
2.1508e-05
1.97785e-05
-0.000124548
-3.58682e-05
2.63526e-05
-4.80296e-05
1.74691e-05
-2.99801e-05
-4.80296e-05
8.30644e-05
-2.99801e-05
2.43885e-05
8.30644e-05
-0.000124548
2.43885e-05
-8.48676e-05
-0.000124548
-3.58681e-05
-8.48676e-05
-3.01055e-06
2.43885e-05
-8.48676e-05
-3.48758e-05
6.43836e-05
-8.48676e-05
0.000285444
6.43836e-05
-3.55527e-06
0.000285444
-3.01056e-06
-3.55527e-06
7.52638e-05
6.43836e-05
-3.55528e-06
3.25358e-05
0.000234476
-3.55528e-06
7.52638e-05
0.000234476
6.06319e-05
-0.000294396
9.60883e-05
-0.00117799
0.00276126
9.60882e-05
-0.00554957
0.00276126
0.00573397
-4.45467e-05
-0.000294396
-0.000679943
-0.00117799
-0.00184771
-0.00107274
0.00152955
0.00792283
-0.00107274
0.01486
0.00792283
0.00891286
0.00152955
0.00792283
-0.00554957
-0.00828671
-0.000205126
0.000130194
-0.000312681
0.000853885
0.000130194
-0.00184771
0.000853885
0.00152955
0.000853885
0.00152955
9.60882e-05
-0.00554957
-0.000312681
0.000853885
-0.000294396
9.60884e-05
6.06319e-05
-0.000195019
-6.51275e-05
-0.000235796
-6.51275e-05
-0.000235796
-0.000339309
-4.45467e-05
-0.000195019
-0.000205126
-0.000235796
-0.000312681
-0.000235796
-0.000312681
-4.45467e-05
-0.000294396
0.0202279
0.272544
0.00930665
0.248958
0.00930665
0.248958
0.01486
0.24242
-0.0014643
0.00378773
-0.000103744
0.00303624
0.00378773
0.0202279
0.00303624
0.00930665
0.00303624
0.00930665
-0.00107274
0.01486
-0.000103744
0.00303624
-0.00184771
-0.00107274
-0.000467329
0.000822301
-0.000304783
0.000647096
0.000822301
-0.0014643
0.000647096
-0.000103744
0.000647096
-0.000103744
0.000130194
-0.00184771
-0.000304783
0.000647096
-0.000205126
0.000130194
7.52638e-05
0.000233022
9.37923e-05
0.000132446
9.37923e-05
0.000132446
6.06319e-05
-0.000195019
0.000233022
-0.000467329
0.000132446
-0.000304783
0.000132446
-0.000304783
-0.000195019
-0.000205126
0.53012
0.920014
0.0967816
0.563093
0.0967816
0.563093
0.0202279
0.272544
0.0143715
0.08821
-0.00191809
0.0177309
0.08821
0.53012
0.0177309
0.0967816
0.0177309
0.0967816
0.00378773
0.0202279
-0.00191809
0.0177309
-0.0014643
0.00378773
0.00128412
-0.00278786
-0.000701192
0.00155168
-0.00278786
0.0143715
0.00155168
-0.00191809
0.00155168
-0.00191809
0.000822301
-0.0014643
-0.000701192
0.00155168
-0.000467329
0.000822301
-3.01059e-06
-0.000163572
3.78697e-05
-0.000566554
3.78697e-05
-0.000566554
7.52638e-05
0.000233022
-0.000163572
0.00128412
-0.000566554
-0.000701192
-0.000566554
-0.000701192
0.000233022
-0.000467329
0.519997
0.913118
0.68988
0.962863
0.962863
0.993865
0.920014
0.987946
0.68988
0.962863
0.53012
0.920014
0.0166393
0.0997835
0.0198681
0.149924
0.0997835
0.519997
0.149925
0.68988
0.149924
0.68988
0.08821
0.53012
0.0198681
0.149924
0.0143715
0.08821
0.00138966
-0.00231079
0.00147239
-0.00228913
-0.00231079
0.0166392
-0.00228913
0.0198681
-0.00228913
0.0198681
-0.00278786
0.0143715
0.00147239
-0.00228913
0.00128412
-0.00278786
-3.58682e-05
-0.000375307
-3.44462e-05
-0.000574205
-3.44462e-05
-0.000574205
-3.01053e-06
-0.000163572
-0.000375307
0.00138966
-0.000574205
0.00147239
-0.000574205
0.00147239
-0.000163572
0.00128412
0.118401
0.452986
0.313038
0.786135
0.313039
0.786135
0.519997
0.913118
0.00123094
0.0214248
0.00777619
0.0565046
0.0214248
0.118401
0.0565046
0.313038
0.0565046
0.313038
0.0997835
0.519997
0.00777619
0.0565046
0.0166392
0.0997835
-0.000338827
0.00068156
0.000283707
-0.000338325
0.00068156
0.00123094
-0.000338325
0.00777619
-0.000338325
0.00777619
-0.00231079
0.0166392
0.000283707
-0.000338325
0.00138966
-0.00231079
1.97785e-05
0.000120363
2.09725e-08
-0.000178303
2.09725e-08
-0.000178303
-3.58682e-05
-0.000375307
0.000120363
-0.000338827
-0.000178303
0.000283707
-0.000178303
0.000283707
-0.000375307
0.00138966
0.00225823
0.0523362
0.118401
0.452986
-0.000416778
0.00230846
0.000134354
0.000692783
0.00230846
0.0162383
0.000692783
0.00225823
0.000692783
0.00225823
0.0214248
0.118401
0.000134354
0.000692783
0.00123094
0.0214248
-0.000140729
0.000966692
2.13835e-05
-0.000233004
0.000966693
-0.000416778
-0.000233004
0.000134354
-0.000233004
0.000134354
0.00068156
0.00123094
2.13835e-05
-0.000233004
-0.000338827
0.00068156
-7.93825e-06
-0.000254455
-1.32622e-05
0.000158669
-1.32622e-05
0.000158669
1.97785e-05
0.000120363
-0.000254455
-0.000140729
0.000158668
2.13835e-05
0.000158668
2.13835e-05
0.000120363
-0.000338827
0.0113129
0.102597
0.000991341
-0.000301058
0.102597
0.336504
-0.000301058
-0.0133533
-0.000301059
-0.0133533
0.00230846
0.0162383
0.000991341
-0.000301059
-0.000416778
0.00230846
0.00143415
-0.00342145
-0.000167147
4.13639e-05
-0.00342145
0.0113129
4.1364e-05
0.000991341
4.1364e-05
0.000991341
0.000966692
-0.000416778
-0.000167147
4.13639e-05
-0.000140729
0.000966692
0.000314856
0.00257014
0.000121942
0.000279407
0.000121942
0.000279407
-7.93823e-06
-0.000254455
0.00257014
0.00143415
0.000279407
-0.000167147
0.000279407
-0.000167147
-0.000254455
-0.000140729
0.000443352
0.00378201
0.000465769
0.00384903
0.000465769
0.00384903
0.000314856
0.00257014
0.00378201
-0.00281323
0.00384903
-0.000774633
0.00384903
-0.000774633
0.00257014
0.00143415
-0.00281323
0.00817097
-0.000774633
0.00331589
0.00331589
0.0525331
-0.00342145
0.0113129
-0.000774633
0.00331589
0.00143415
-0.00342145
0.0525331
0.330726
0.0113129
0.102597
1.00032
0.999236
1.00059
0.99948
0.999236
0.999397
0.99948
1.00008
0.999398
1.00007
1.00008
1.00011
1.00007
0.999901
1.00011
0.999835
0.999901
0.999113
0.999835
1.00017
0.999113
0.998405
1.00017
1.00071
0.998405
0.998507
1.00071
1.00077
0.998507
0.998705
1.00077
1.00059
0.998986
1.00013
0.999765
1.00023
1.00013
1.00059
1.00023
1.00017
1.00059
0.99948
1.00017
0.999909
0.99948
1.00008
0.999909
0.999764
1.00008
1.00011
0.999764
0.999921
1.00011
0.999835
0.999921
1.00005
0.999835
1.00017
1.00005
0.999852
1.00017
1.00071
0.999852
0.999566
1.00071
1.00077
0.999566
0.999494
1.00077
1.00059
0.999494
0.999556
0.999765
1.00023
1.00012
1.00006
1.00023
1.00017
1.00006
1.00021
1.00017
0.999764
1.00021
0.999986
0.999764
1.00005
0.999986
0.999971
1.00005
0.999566
0.999971
1.00017
0.999566
0.999556
1.00017
1.00021
1.00012
1.00021
0.999727
0.999761
1.00021
0.999986
0.999761
1.0003
0.999986
0.999971
1.0003
0.999991
0.999971
1.00017
0.999991
1.00001
1.00017
1.00021
1.00001
1.00005
0.997445
0.999727
1.00286
1.00109
0.999727
0.999761
1.00109
0.999953
0.999761
1.0003
0.999953
0.999813
1.0003
0.999991
0.999813
0.999806
0.999991
1.00001
0.999806
0.99981
1.00001
1.00005
0.99981
0.999902
0.999953
0.999813
1.00065
1.00008
0.999813
0.999806
1.00008
1.00056
0.999806
0.99981
1.00056
1.00029
0.999375
1.00005
1.00495
0.997445
1.00005
1.00012
0.997445
0.999727
1.00049
0.999374
0.996837
1.00241
0.996837
1.00241
0.986809
1.00495
0.998644
0.998811
0.999003
1.00032
0.999003
1.00032
0.999375
1.00005
0.998811
0.999765
1.00032
1.00012
1.00032
1.00012
1.00005
1.00012
0.985781
0.999174
0.993865
1.00213
0.999174
0.998644
1.00213
0.999003
1.00213
0.999003
1.00049
0.999374
0.993865
1.00213
0.987946
1.00049
0.913118
0.985781
0.962863
0.993865
0.987137
0.994404
0.997574
0.997717
0.997574
0.997717
0.998644
0.998811
0.994404
0.998986
0.997717
0.999226
0.997717
0.999226
0.998811
0.999765
0.806883
0.94721
0.96096
0.987861
0.94721
0.987137
0.987861
0.997574
0.987861
0.997574
0.999174
0.998644
0.96096
0.987861
0.985781
0.999174
0.452986
0.806883
0.786135
0.96096
0.786135
0.96096
0.913118
0.985781
0.996425
0.99616
0.998986
1.00013
0.99616
1.00032
1.00013
1.00059
0.941079
0.989138
0.967802
0.990644
0.967802
0.990644
0.987137
0.994404
0.989138
0.996425
0.990644
0.998949
0.990644
0.998949
0.994404
0.998986
0.160546
0.66015
0.295251
0.781141
0.66015
0.941079
0.781141
0.967802
0.781141
0.967802
0.94721
0.987137
0.295251
0.781142
0.806883
0.94721
0.0162383
0.0361084
0.00225823
0.0523362
0.0361084
0.160546
0.0523362
0.295251
0.0523362
0.295251
0.452986
0.806883
0.430841
0.176755
0.540035
0.449253
0.540035
0.449253
0.507491
0.514864
0.516227
0.540035
0.528933
0.507491
0.176755
0.0628596
0.449253
0.269586
0.0628596
0.0135776
0.269586
0.117649
0.269586
0.117649
0.505636
0.398842
0.449253
0.269586
0.514864
0.505636
0.0667707
0.199052
0.391167
0.738117
0.117649
0.0667707
0.398842
0.391167
0.448227
0.703502
0.929727
0.981918
0.199052
0.448227
0.738117
0.929727
0.998573
0.998397
0.998405
0.998507
0.999989
0.99914
0.999901
0.999113
0.99914
0.998573
0.999113
0.998404
0.999907
1.00063
0.999397
1.00007
1.00063
0.999989
1.00007
0.999901
0.991774
0.998648
1.00032
0.999236
0.998648
0.999907
0.999236
0.999398
0.930281
0.963435
0.986158
0.9882
0.986158
0.9882
0.996425
0.99616
0.963435
0.991774
0.9882
0.99853
0.9882
0.99853
0.99616
1.00032
0.608504
0.846079
0.854002
0.967899
0.846079
0.930281
0.967899
0.986158
0.967899
0.986158
0.989138
0.996425
0.854002
0.967899
0.941079
0.989138
0.541017
0.552439
0.385183
0.660664
0.552439
0.608504
0.660664
0.854002
0.660664
0.854002
0.66015
0.941079
0.385183
0.660664
0.160546
0.66015
0.336504
0.491379
-0.0133533
0.0584766
0.491379
0.541017
0.0584766
0.385183
0.0584766
0.385183
0.0361084
0.160546
-0.0133533
0.0584766
0.0162383
0.0361084
0.550341
0.528934
0.580069
0.5392
0.580069
0.5392
0.491379
0.541017
0.554304
0.580069
0.336504
0.491379
0.528934
0.507491
0.5392
0.489535
0.507491
0.514864
0.489535
0.503405
0.489535
0.503405
0.552439
0.608504
0.5392
0.489535
0.541017
0.552439
0.514864
0.505636
0.503405
0.623525
0.505636
0.398842
0.623525
0.723852
0.623525
0.723852
0.846079
0.930281
0.503405
0.623525
0.608504
0.846079
0.398842
0.391167
0.723852
0.824882
0.391167
0.738117
0.824882
0.957783
0.824882
0.957783
0.963435
0.991774
0.723852
0.824882
0.930281
0.963435
0.738117
0.929727
0.957783
0.986693
0.929727
0.981918
0.986693
0.996956
0.986693
0.996956
0.998648
0.999907
0.957783
0.986693
0.991774
0.998648
0.981918
0.98875
0.996956
1.00008
0.98875
0.98771
1.00008
0.998929
1.00008
0.998929
1.00063
0.999989
0.996956
1.00008
0.999907
1.00063
0.98771
0.976635
0.998929
0.994233
0.994233
0.991023
0.99914
0.998574
0.998929
0.994233
0.999989
0.99914
0.991023
0.99053
0.998573
0.998397
2.27491e-07
2.17384e-07
2.22037e-07
2.15033e-07
2.17384e-07
-3.51697e-07
2.15033e-07
-3.45264e-07
-3.51697e-07
5.97408e-07
-3.45264e-07
5.86413e-07
5.97408e-07
-1.08324e-06
5.86413e-07
-1.03466e-06
-1.08324e-06
2.09294e-06
-1.03466e-06
2.07194e-06
2.09294e-06
-4.60771e-06
2.07194e-06
-4.59289e-06
-4.60771e-06
5.26806e-06
-4.59289e-06
5.28694e-06
5.26806e-06
-8.31629e-07
5.28694e-06
-7.17366e-07
-8.31629e-07
1.31848e-05
-7.17368e-07
1.25193e-05
2.22037e-07
2.15033e-07
-3.57619e-07
-3.42304e-07
2.15033e-07
-3.45264e-07
-3.42304e-07
5.62466e-07
-3.45264e-07
5.86412e-07
5.62466e-07
-9.58427e-07
5.86413e-07
-1.03466e-06
-9.58427e-07
1.75988e-06
-1.03466e-06
2.07194e-06
1.75988e-06
-3.3367e-06
2.07194e-06
-4.59289e-06
-3.3367e-06
7.3342e-06
-4.59289e-06
5.28694e-06
7.3342e-06
-8.27282e-06
5.28694e-06
-7.17367e-07
-8.27282e-06
1.23321e-06
-7.17367e-07
1.25193e-05
1.23321e-06
-1.98644e-05
-3.57619e-07
-3.42304e-07
6.06008e-07
5.78429e-07
-3.42304e-07
5.62466e-07
5.78429e-07
-9.57767e-07
5.62466e-07
-9.58427e-07
-9.57767e-07
1.63697e-06
-9.58427e-07
1.75988e-06
1.63697e-06
-3.04704e-06
1.75988e-06
-3.3367e-06
-3.04704e-06
5.6581e-06
-3.3367e-06
7.3342e-06
5.65809e-06
-1.23988e-05
7.3342e-06
-8.27282e-06
-1.23988e-05
1.38432e-05
-8.27282e-06
1.23321e-06
1.38432e-05
-2.1017e-06
1.23321e-06
-1.98644e-05
-2.1017e-06
3.31765e-05
6.06008e-07
5.78429e-07
-1.09826e-06
-1.04617e-06
5.78429e-07
-9.57767e-07
-1.04617e-06
1.74337e-06
-9.57767e-07
1.63697e-06
1.74337e-06
-2.98057e-06
1.63697e-06
-3.04704e-06
-2.98057e-06
5.55603e-06
-3.04704e-06
5.6581e-06
5.55603e-06
-1.02992e-05
5.6581e-06
-1.23988e-05
-1.02992e-05
2.25344e-05
-1.23988e-05
1.38432e-05
2.25344e-05
-2.508e-05
1.38432e-05
-2.10171e-06
-2.508e-05
4.52718e-06
-2.10171e-06
3.31765e-05
4.52718e-06
-5.9571e-05
-1.09826e-06
-1.04617e-06
3.66322e-06
3.53404e-06
-1.04617e-06
1.74337e-06
3.53404e-06
-5.77414e-06
1.74337e-06
-2.98057e-06
-5.77414e-06
9.8066e-06
-2.98057e-06
5.55603e-06
9.8066e-06
-1.7924e-05
5.55603e-06
-1.02992e-05
-1.7924e-05
3.32187e-05
-1.02992e-05
2.25344e-05
3.32187e-05
-6.76536e-05
2.25344e-05
-2.508e-05
-6.76536e-05
8.2609e-05
-2.508e-05
1.04598e-05
8.2609e-05
-0.000101614
1.04598e-05
4.52718e-06
-0.000101614
-2.18548e-05
4.52718e-06
-9.79986e-05
-2.18548e-05
0.000289118
-9.79986e-05
-5.95709e-05
0.000289118
8.49843e-05
-5.9571e-05
0.0002912
8.49842e-05
-0.000646644
3.66322e-06
3.53404e-06
-2.85867e-06
-2.68624e-06
3.53404e-06
-5.77414e-06
-2.68624e-06
4.74369e-06
-5.77414e-06
9.8066e-06
4.74369e-06
-8.29084e-06
9.8066e-06
-1.7924e-05
-8.29084e-06
1.58062e-05
-1.7924e-05
3.32187e-05
1.58062e-05
-2.68522e-05
3.32187e-05
-6.76536e-05
-2.68522e-05
4.75176e-05
-6.76536e-05
5.07643e-05
4.75176e-05
-5.09449e-05
5.07643e-05
8.2609e-05
-5.09449e-05
-5.30552e-05
8.2609e-05
-0.000101614
-5.30552e-05
-6.67715e-05
-0.000101614
-2.18548e-05
-6.67715e-05
-1.15834e-05
-2.18548e-05
0.000289118
-1.15834e-05
-0.000138594
0.000289118
8.49844e-05
-0.000138594
-0.000101443
8.49843e-05
-0.000646644
-0.000101443
0.000685023
-0.000646644
-0.00088135
0.000685023
0.00175142
-2.85867e-06
-2.68624e-06
-1.53525e-06
-1.4676e-06
-2.68624e-06
4.7437e-06
-1.4676e-06
2.13798e-06
4.74369e-06
-8.29085e-06
2.13798e-06
-3.55591e-06
-8.29084e-06
1.58062e-05
-3.55591e-06
4.93388e-06
1.58062e-05
-2.68522e-05
4.93389e-06
-6.70722e-06
-2.68522e-05
4.75176e-05
-6.70723e-06
-3.33083e-05
4.75176e-05
-5.09449e-05
-3.33083e-05
-0.000202876
-5.09449e-05
-5.30552e-05
-0.000202876
1.03661e-05
-1.53525e-06
-1.4676e-06
5.97312e-06
5.58151e-06
-1.4676e-06
2.13798e-06
5.58151e-06
-9.09027e-06
2.13798e-06
-3.55591e-06
-9.09027e-06
1.549e-05
-3.55591e-06
4.93389e-06
1.549e-05
-2.72017e-05
4.93388e-06
-6.70722e-06
-2.72017e-05
3.72266e-05
-6.70722e-06
-3.33083e-05
3.72266e-05
3.12367e-05
5.97312e-06
5.58151e-06
-7.03554e-06
-6.46556e-06
5.58152e-06
-9.09027e-06
-6.46557e-06
9.71022e-06
-9.09028e-06
1.549e-05
9.71022e-06
-1.60492e-05
1.549e-05
-2.72017e-05
-1.60492e-05
2.78321e-05
-2.72017e-05
3.72266e-05
2.78321e-05
-3.53547e-05
3.72266e-05
3.12367e-05
-3.53546e-05
-5.47082e-05
-5.30553e-05
-6.67715e-05
1.03661e-05
0.000153019
-6.67715e-05
-1.15833e-05
0.000153019
-5.45312e-05
-1.15834e-05
-0.000138594
-5.45312e-05
8.4097e-05
-0.000138594
-0.000101443
8.4097e-05
-0.000153887
-0.000101443
0.000685023
-0.000153887
0.000532248
0.000685023
0.00175142
0.000532248
0.00117949
-3.33083e-05
-0.000202877
3.12367e-05
0.000408351
-0.000202877
1.03661e-05
0.000408351
-0.000156735
1.03661e-05
0.000153019
8.90451e-05
-0.000582953
8.90451e-05
-0.000582953
-0.000156735
0.000612904
0.000153019
-5.45312e-05
-0.000582953
0.000196311
-0.000582953
0.000196311
0.000612904
0.000875473
-5.45312e-05
8.40971e-05
0.000196311
-0.000647408
8.40971e-05
-0.000153887
-0.000647408
-0.000992218
-0.000647408
-0.000992218
6.16285e-05
0.00209626
0.000196311
-0.000647408
0.000875473
6.16283e-05
-0.000153887
0.000532248
-0.000992218
0.00313118
0.000532248
0.00117949
0.00313118
0.00781855
0.00313118
0.00781855
-0.00440195
-0.0102324
-0.000992218
0.00313118
0.00209626
-0.00440195
0.00781855
0.0075687
-0.0102324
-0.00100969
3.12367e-05
0.000408351
-5.31399e-05
-0.000974386
-5.31399e-05
-0.000974386
-5.47083e-05
-0.000295051
0.000408351
-0.000156735
-0.000974386
-0.000586045
-0.000974386
-0.000586045
-0.000295051
0.000459095
-0.000156735
0.000612904
-0.000586045
0.00178356
0.000612904
0.000875473
0.00178356
-0.0021424
0.00178356
-0.0021424
-0.00157058
0.00610895
-0.000586045
0.00178356
0.000459095
-0.00157058
0.000875473
6.16284e-05
-0.0021424
0.00176544
6.16283e-05
0.00209626
0.00176544
0.00613824
0.00176544
0.00613824
0.0351374
0.137252
-0.0021424
0.00176544
0.00610895
0.0351374
0.00209626
-0.00440195
0.00613824
0.0898043
-0.00440195
-0.0102324
0.0898043
0.199666
0.0898043
0.199666
0.309866
0.44875
0.00613824
0.0898043
0.137252
0.309866
-0.0102324
-0.00100969
0.199666
0.150186
0.199666
0.150186
0.44875
0.430841
-5.47083e-05
-0.000295051
0.000186994
0.00274611
0.000186994
0.00274611
0.000443352
0.00378201
-0.000295051
0.000459095
0.00274611
0.0010107
0.00274611
0.0010107
0.00378201
-0.00281323
0.000459095
-0.00157058
0.00101069
-0.000567813
-0.00157058
0.00610895
-0.000567814
0.0243639
-0.000567813
0.0243639
0.00817097
0.0632608
0.00101069
-0.000567814
-0.00281323
0.00817097
0.00610895
0.0351374
0.0243639
0.171085
0.0351374
0.137252
0.171085
0.398413
0.171085
0.398413
0.369795
0.573935
0.0243639
0.171085
0.0632608
0.369795
0.137252
0.309866
0.398413
0.501128
0.309866
0.44875
0.501128
0.516227
0.501128
0.516227
0.550341
0.528933
0.398413
0.501128
0.573935
0.550341
0.44875
0.430841
0.516227
0.540035
0.00817097
0.0632608
0.00331589
0.0525331
0.0632608
0.369795
0.0525331
0.330726
0.369795
0.573935
0.330726
0.554304
0.330726
0.554304
0.102597
0.336504
0.573935
0.550341
0.554304
0.580069
1.31848e-05
-0.000112071
1.25193e-05
-0.000112734
-0.000112071
-1.57567e-05
-0.000112734
-1.71743e-05
-1.57567e-05
-2.42662e-06
-1.71743e-05
-5.27324e-06
-2.42662e-06
9.44101e-06
-5.27324e-06
1.32933e-05
9.44101e-06
2.95552e-05
1.32933e-05
2.19485e-05
2.95552e-05
2.57932e-05
2.19485e-05
1.16491e-05
2.57932e-05
5.37858e-05
1.16491e-05
5.30083e-05
5.37858e-05
3.59369e-05
5.30083e-05
3.49337e-05
1.25193e-05
-0.000112734
-1.98644e-05
0.000182889
-0.000112734
-1.71743e-05
0.000182889
2.83629e-05
-1.71743e-05
-5.27324e-06
2.83629e-05
1.47179e-06
-5.27324e-06
1.32933e-05
1.47179e-06
-1.55938e-05
1.32933e-05
2.19485e-05
-1.55938e-05
-6.0529e-05
2.19485e-05
1.16491e-05
-6.0529e-05
-5.51214e-05
1.16491e-05
5.30083e-05
-5.51214e-05
-9.57905e-05
5.30083e-05
3.49337e-05
-9.57905e-05
-6.52574e-05
-1.98644e-05
0.000182889
3.31765e-05
-0.000312246
0.000182889
2.83629e-05
-0.000312246
-5.03434e-05
2.83629e-05
1.47179e-06
-5.03434e-05
2.56792e-06
1.47179e-06
-1.55938e-05
2.56792e-06
2.38582e-05
-1.55938e-05
-6.0529e-05
2.38582e-05
0.000120741
-6.0529e-05
-5.51214e-05
0.000120741
0.000118898
-5.51214e-05
-9.57905e-05
0.000118898
0.000173866
-9.57905e-05
-6.52574e-05
0.000173866
0.000119146
3.31765e-05
-0.000312246
-5.9571e-05
0.000568401
-0.000312246
-5.03433e-05
0.000568401
9.56323e-05
-5.03434e-05
2.56792e-06
9.56323e-05
-9.86777e-06
2.56792e-06
2.38582e-05
-9.86777e-06
-3.86906e-05
2.38582e-05
0.000120741
-3.86906e-05
-0.000244729
0.000120741
0.000118898
-0.000244729
-0.000214876
0.000118898
0.000173866
-0.000214876
-0.000313056
0.000173866
0.000119146
-0.000313056
-0.000208132
0.0002912
0.000568401
-0.000646644
-0.00088135
0.000568401
0.000408602
-0.00088135
-0.000569356
0.000408602
9.56323e-05
-0.000569356
-0.000231205
9.56323e-05
-2.51955e-05
-0.000231205