# vtk DataFile Version 2.0
Hex test
ASCII
DATASET UNSTRUCTURED_GRID
POINTS 10368 float
24 26 0
24 28 0
26 26 0
26 28 0
24 28 0
24 30 0
26 28 0
26 30 0
24 30 0
24 32 0
26 30 0
26 32 0
24 32 0
24 34 0
26 32 0
26 34 0
24 34 0
24 36 0
26 34 0
26 36 0
26 24 0
26 26 0
28 24 0
28 26 0
26 26 0
26 28 0
28 26 0
28 28 0
26 28 0
26 30 0
28 28 0
28 30 0
26 30 0
26 32 0
28 30 0
28 32 0
26 32 0
26 34 0
28 32 0
28 34 0
26 34 0
26 36 0
28 34 0
28 36 0
28 24 0
28 26 0
30 24 0
30 26 0
28 26 0
28 28 0
30 26 0
30 28 0
28 28 0
28 30 0
30 28 0
30 30 0
28 30 0
28 32 0
30 30 0
30 32 0
28 32 0
28 34 0
30 32 0
30 34 0
28 34 0
28 35 0
30 34 0
30 35 0
28 35 0
28 36 0
30 35 0
30 36 0
30 24 0
30 26 0
32 24 0
32 26 0
30 26 0
30 28 0
32 26 0
32 28 0
30 28 0
30 30 0
32 28 0
32 30 0
30 30 0
30 32 0
32 30 0
32 32 0
30 32 0
30 33 0
32 32 0
32 33 0
30 33 0
30 34 0
32 33 0
32 34 0
30 34 0
30 35 0
32 34 0
32 35 0
30 35 0
30 36 0
32 35 0
32 36 0
32 24 0
32 25 0
34 24 0
34 25 0
32 25 0
32 26 0
34 25 0
34 26 0
32 26 0
32 27 0
34 26 0
34 27 0
32 27 0
32 28 0
34 27 0
34 28 0
32 28 0
32 29 0
34 28 0
34 29 0
32 29 0
32 30 0
34 29 0
34 30 0
32 30 0
32 31 0
34 30 0
34 31 0
32 31 0
32 32 0
34 31 0
34 32 0
32 32 0
32 33 0
34 32 0
34 33 0
32 33 0
32 34 0
34 33 0
34 34 0
34 24 0
34 25 0
36 24 0
36 25 0
34 25 0
34 26 0
36 25 0
36 26 0
34 26 0
34 27 0
36 26 0
36 27 0
34 27 0
34 28 0
36 27 0
36 28 0
34 28 0
34 29 0
36 28 0
36 29 0
34 29 0
34 30 0
36 29 0
36 30 0
34 30 0
34 31 0
36 30 0
36 31 0
34 31 0
34 32 0
36 31 0
36 32 0
40 36 0
40 37 0
41 36 0
41 37 0
40 34 0
40 35 0
41 34 0
41 35 0
40 35 0
40 36 0
41 35 0
41 36 0
40 33 0
40 34 0
41 33 0
41 34 0
38 36 0
38 37 0
39 36 0
39 37 0
38 37 0
38 38 0
39 37 0
39 38 0
39 36 0
39 37 0
40 36 0
40 37 0
38 34 0
38 35 0
39 34 0
39 35 0
38 35 0
38 36 0
39 35 0
39 36 0
39 35 0
39 36 0
40 35 0
40 36 0
39 34 0
39 35 0
40 34 0
40 35 0
38 32 0
38 33 0
39 32 0
39 33 0
38 33 0
38 34 0
39 33 0
39 34 0
39 33 0
39 34 0
40 33 0
40 34 0
39 32 0
39 33 0
40 32 0
40 33 0
38 30 0
38 31 0
39 30 0
39 31 0
38 31 0
38 32 0
39 31 0
39 32 0
39 31 0
39 32 0
40 31 0
40 32 0
39 30 0
39 31 0
40 30 0
40 31 0
38 28 0
38 29 0
39 28 0
39 29 0
38 29 0
38 30 0
39 29 0
39 30 0
38 27 0
38 28 0
39 27 0
39 28 0
36 38 0
36 39 0
37 38 0
37 39 0
36 39 0
36 40 0
37 39 0
37 40 0
37 38 0
37 39 0
38 38 0
38 39 0
36 36 0
36 37 0
37 36 0
37 37 0
36 37 0
36 38 0
37 37 0
37 38 0
37 37 0
37 38 0
38 37 0
38 38 0
37 36 0
37 37 0
38 36 0
38 37 0
36 34 0
36 35 0
37 34 0
37 35 0
36 35 0
36 36 0
37 35 0
37 36 0
37 35 0
37 36 0
38 35 0
38 36 0
37 34 0
37 35 0
38 34 0
38 35 0
36 32 0
36 33 0
37 32 0
37 33 0
37 32 0
37 33 0
38 32 0
38 33 0
36 33 0
36 34 0
37 33 0
37 34 0
37 33 0
37 34 0
38 33 0
38 34 0
36 30 0
36 31 0
38 30 0
38 31 0
36 31 0
36 32 0
38 31 0
38 32 0
36 28 0
36 29 0
38 28 0
38 29 0
36 29 0
36 30 0
38 29 0
38 30 0
36 26 0
36 27 0
38 26 0
38 27 0
36 27 0
36 28 0
38 27 0
38 28 0
36 24 0
36 25 0
38 24 0
38 25 0
36 25 0
36 26 0
38 25 0
38 26 0
34 40 0
34 41 0
35 40 0
35 41 0
34 41 0
34 42 0
35 41 0
35 42 0
35 40 0
35 41 0
36 40 0
36 41 0
34 38 0
34 39 0
35 38 0
35 39 0
34 39 0
34 40 0
35 39 0
35 40 0
35 39 0
35 40 0
36 39 0
36 40 0
35 38 0
35 39 0
36 38 0
36 39 0
34 36 0
34 37 0
35 36 0
35 37 0
34 37 0
34 38 0
35 37 0
35 38 0
35 37 0
35 38 0
36 37 0
36 38 0
35 36 0
35 37 0
36 36 0
36 37 0
34 34 0
34 35 0
35 34 0
35 35 0
35 34 0
35 35 0
36 34 0
36 35 0
34 35 0
34 36 0
35 35 0
35 36 0
35 35 0
35 36 0
36 35 0
36 36 0
34 32 0
34 33 0
36 32 0
36 33 0
34 33 0
34 34 0
36 33 0
36 34 0
32 40 0
32 41 0
33 40 0
33 41 0
32 41 0
32 42 0
33 41 0
33 42 0
33 41 0
33 42 0
34 41 0
34 42 0
33 40 0
33 41 0
34 40 0
34 41 0
32 38 0
32 39 0
33 38 0
33 39 0
32 39 0
32 40 0
33 39 0
33 40 0
33 39 0
33 40 0
34 39 0
34 40 0
33 38 0
33 39 0
34 38 0
34 39 0
32 36 0
32 37 0
33 36 0
33 37 0
33 36 0
33 37 0
34 36 0
34 37 0
32 37 0
32 38 0
33 37 0
33 38 0
33 37 0
33 38 0
34 37 0
34 38 0
32 34 0
32 35 0
34 34 0
34 35 0
32 35 0
32 36 0
34 35 0
34 36 0
30 40 0
30 41 0
31 40 0
31 41 0
31 41 0
31 42 0
32 41 0
32 42 0
31 40 0
31 41 0
32 40 0
32 41 0
30 38 0
30 39 0
31 38 0
31 39 0
30 39 0
30 40 0
31 39 0
31 40 0
31 39 0
31 40 0
32 39 0
32 40 0
31 38 0
31 39 0
32 38 0
32 39 0
30 36 0
30 37 0
31 36 0
31 37 0
31 36 0
31 37 0
32 36 0
32 37 0
30 37 0
30 38 0
31 37 0
31 38 0
31 37 0
31 38 0
32 37 0
32 38 0
28 40 0
28 41 0
29 40 0
29 41 0
29 40 0
29 41 0
30 40 0
30 41 0
28 38 0
28 39 0
29 38 0
29 39 0
28 39 0
28 40 0
29 39 0
29 40 0
29 39 0
29 40 0
30 39 0
30 40 0
29 38 0
29 39 0
30 38 0
30 39 0
28 36 0
28 37 0
29 36 0
29 37 0
29 36 0
29 37 0
30 36 0
30 37 0
28 37 0
28 38 0
29 37 0
29 38 0
29 37 0
29 38 0
30 37 0
30 38 0
27 40 0
27 41 0
28 40 0
28 41 0
26 38 0
26 39 0
27 38 0
27 39 0
26 39 0
26 40 0
27 39 0
27 40 0
27 39 0
27 40 0
28 39 0
28 40 0
27 38 0
27 39 0
28 38 0
28 39 0
26 36 0
26 37 0
27 36 0
27 37 0
27 36 0
27 37 0
28 36 0
28 37 0
26 37 0
26 38 0
27 37 0
27 38 0
27 37 0
27 38 0
28 37 0
28 38 0
24 38 0
24 39 0
25 38 0
25 39 0
25 39 0
25 40 0
26 39 0
26 40 0
25 38 0
25 39 0
26 38 0
26 39 0
24 36 0
24 37 0
25 36 0
25 37 0
25 36 0
25 37 0
26 36 0
26 37 0
24 37 0
24 38 0
25 37 0
25 38 0
25 37 0
25 38 0
26 37 0
26 38 0
46 22 0
46 23 0
48 22 0
48 23 0
46 23 0
46 24 0
48 23 0
48 24 0
46 24 0
46 25 0
48 24 0
48 25 0
46 25 0
46 26 0
48 25 0
48 26 0
46 26 0
46 27 0
48 26 0
48 27 0
46 27 0
46 28 0
48 27 0
48 28 0
46 28 0
46 29 0
48 28 0
48 29 0
46 29 0
46 30 0
48 29 0
48 30 0
46 30 0
46 31 0
48 30 0
48 31 0
46 31 0
46 32 0
48 31 0
48 32 0
46 32 0
46 33 0
48 32 0
48 33 0
46 33 0
46 34 0
48 33 0
48 34 0
46 34 0
46 35 0
48 34 0
48 35 0
46 35 0
46 36 0
48 35 0
48 36 0
46 36 0
46 37 0
48 36 0
48 37 0
46 37 0
46 38 0
48 37 0
48 38 0
48 22 0
48 23 0
50 22 0
50 23 0
48 23 0
48 24 0
50 23 0
50 24 0
48 24 0
48 25 0
50 24 0
50 25 0
48 25 0
48 26 0
50 25 0
50 26 0
48 26 0
48 27 0
50 26 0
50 27 0
48 27 0
48 28 0
50 27 0
50 28 0
48 28 0
48 29 0
50 28 0
50 29 0
48 29 0
48 30 0
50 29 0
50 30 0
48 30 0
48 31 0
50 30 0
50 31 0
48 31 0
48 32 0
50 31 0
50 32 0
48 32 0
48 33 0
50 32 0
50 33 0
48 33 0
48 34 0
50 33 0
50 34 0
48 34 0
48 35 0
50 34 0
50 35 0
48 35 0
48 36 0
50 35 0
50 36 0
48 36 0
48 37 0
50 36 0
50 37 0
48 37 0
48 38 0
50 37 0
50 38 0
50 22 0
50 24 0
52 22 0
52 24 0
50 24 0
50 26 0
52 24 0
52 26 0
50 26 0
50 28 0
52 26 0
52 28 0
50 28 0
50 30 0
52 28 0
52 30 0
50 30 0
50 32 0
52 30 0
52 32 0
50 32 0
50 34 0
52 32 0
52 34 0
50 34 0
50 36 0
52 34 0
52 36 0
50 36 0
50 38 0
52 36 0
52 38 0
50 38 0
50 40 0
52 38 0
52 40 0
52 22 0
52 24 0
54 22 0
54 24 0
52 24 0
52 26 0
54 24 0
54 26 0
52 26 0
52 28 0
54 26 0
54 28 0
52 28 0
52 30 0
54 28 0
54 30 0
52 30 0
52 32 0
54 30 0
54 32 0
52 32 0
52 34 0
54 32 0
54 34 0
52 34 0
52 36 0
54 34 0
54 36 0
52 36 0
52 38 0
54 36 0
54 38 0
52 38 0
52 40 0
54 38 0
54 40 0
54 22 0
54 24 0
56.1667 22 0
56.1667 24 0
54 24 0
54 26 0
56.1667 24 0
56.1667 26 0
54 26 0
54 28 0
56.1667 26 0
56.1667 28 0
54 28 0
54 30 0
56.1667 28 0
56.1667 30 0
54 30 0
54 32 0
56.1667 30 0
56.1667 32 0
54 32 0
54 34 0
56.1667 32 0
56.1667 34 0
54 34 0
54 36 0
56.1667 34 0
56.1667 36 0
54 36 0
54 38 0
56.1667 36 0
56.1667 38 0
54 38 0
54 40 0
56.1667 38 0
56.1667 40 0
54 40 0
54 42 0
56.1667 40 0
56.1667 42 0
56.1667 22 0
56.1667 24 0
60 22 0
60 24 0
56.1667 24 0
56.1667 26 0
60 24 0
60 26 0
56.1667 26 0
56.1667 28 0
60 26 0
60 28 0
56.1667 28 0
56.1667 30 0
60 28 0
60 30 0
56.1667 30 0
56.1667 32 0
60 30 0
60 32 0
56.1667 32 0
56.1667 34 0
60 32 0
60 34 0
56.1667 34 0
56.1667 36 0
60 34 0
60 36 0
56.1667 36 0
56.1667 38 0
60 36 0
60 38 0
56.1667 38 0
56.1667 40 0
60 38 0
60 40 0
44 36 0
44 37 0
46 36 0
46 37 0
44 37 0
44 38 0
46 37 0
46 38 0
44 34 0
44 35 0
46 34 0
46 35 0
44 35 0
44 36 0
46 35 0
46 36 0
44 32 0
44 33 0
46 32 0
46 33 0
44 33 0
44 34 0
46 33 0
46 34 0
44 30 0
44 31 0
46 30 0
46 31 0
44 31 0
44 32 0
46 31 0
46 32 0
44 28 0
44 29 0
46 28 0
46 29 0
44 29 0
44 30 0
46 29 0
46 30 0
44 26 0
44 27 0
46 26 0
46 27 0
44 27 0
44 28 0
46 27 0
46 28 0
44 24 0
44 25 0
46 24 0
46 25 0
44 25 0
44 26 0
46 25 0
46 26 0
44 22 0
44 23 0
46 22 0
46 23 0
44 23 0
44 24 0
46 23 0
46 24 0
44 21 0
44 22 0
45 21 0
45 22 0
45 21 0
45 22 0
46 21 0
46 22 0
42 36 0
42 37 0
43 36 0
43 37 0
43 36 0
43 37 0
44 36 0
44 37 0
42 34 0
42 35 0
43 34 0
43 35 0
42 35 0
42 36 0
43 35 0
43 36 0
43 35 0
43 36 0
44 35 0
44 36 0
43 34 0
43 35 0
44 34 0
44 35 0
42 32 0
42 33 0
43 32 0
43 33 0
42 33 0
42 34 0
43 33 0
43 34 0
43 33 0
43 34 0
44 33 0
44 34 0
43 32 0
43 33 0
44 32 0
44 33 0
42 30 0
42 31 0
43 30 0
43 31 0
42 31 0
42 32 0
43 31 0
43 32 0
43 31 0
43 32 0
44 31 0
44 32 0
43 30 0
43 31 0
44 30 0
44 31 0
42 28 0
42 29 0
43 28 0
43 29 0
42 29 0
42 30 0
43 29 0
43 30 0
43 29 0
43 30 0
44 29 0
44 30 0
43 28 0
43 29 0
44 28 0
44 29 0
42 26 0
42 27 0
43 26 0
43 27 0
42 27 0
42 28 0
43 27 0
43 28 0
43 27 0
43 28 0
44 27 0
44 28 0
43 26 0
43 27 0
44 26 0
44 27 0
42 24 0
42 25 0
43 24 0
43 25 0
42 25 0
42 26 0
43 25 0
43 26 0
43 25 0
43 26 0
44 25 0
44 26 0
43 24 0
43 25 0
44 24 0
44 25 0
42 22 0
42 23 0
43 22 0
43 23 0
42 23 0
42 24 0
43 23 0
43 24 0
43 23 0
43 24 0
44 23 0
44 24 0
43 22 0
43 23 0
44 22 0
44 23 0
42 20 0
42 21 0
43 20 0
43 21 0
42 21 0
42 22 0
43 21 0
43 22 0
43 21 0
43 22 0
44 21 0
44 22 0
41 35 0
41 36 0
42 35 0
42 36 0
41 34 0
41 35 0
42 34 0
42 35 0
40 32 0
40 33 0
41 32 0
41 33 0
41 33 0
41 34 0
42 33 0
42 34 0
41 32 0
41 33 0
42 32 0
42 33 0
40 30 0
40 31 0
41 30 0
41 31 0
40 31 0
40 32 0
41 31 0
41 32 0
41 31 0
41 32 0
42 31 0
42 32 0
41 30 0
41 31 0
42 30 0
42 31 0
40 28 0
40 29 0
41 28 0
41 29 0
40 29 0
40 30 0
41 29 0
41 30 0
41 29 0
41 30 0
42 29 0
42 30 0
41 28 0
41 29 0
42 28 0
42 29 0
40 26 0
40 27 0
41 26 0
41 27 0
40 27 0
40 28 0
41 27 0
41 28 0
41 27 0
41 28 0
42 27 0
42 28 0
41 26 0
41 27 0
42 26 0
42 27 0
40 24 0
40 25 0
41 24 0
41 25 0
40 25 0
40 26 0
41 25 0
41 26 0
41 25 0
41 26 0
42 25 0
42 26 0
41 24 0
41 25 0
42 24 0
42 25 0
40 22 0
40 23 0
41 22 0
41 23 0
40 23 0
40 24 0
41 23 0
41 24 0
41 23 0
41 24 0
42 23 0
42 24 0
41 22 0
41 23 0
42 22 0
42 23 0
41 21 0
41 22 0
42 21 0
42 22 0
39 29 0
39 30 0
40 29 0
[...]
POINT_DATA 10368
SCALARS phi float 1
LOOKUP_TABLE default
0.999718
1.00007
1.00034
1.0005
1.00007
0.999324
1.0005
1.00019
0.999324
1.00088
1.00019
1.00041
1.00088
0.999026
1.00041
0.99874
0.999026
0.998969
0.99874
0.999428
1.0004
1.00034
0.999197
0.999193
1.00034
1.0005
0.999193
0.999259
1.0005
1.00019
0.999259
0.999172
1.00019
1.00041
0.999172
0.99994
1.00041
0.99874
0.99994
1.00108
0.99874
0.999428
1.00108
1.00014
0.999197
0.999193
1.00149
1.00158
0.999193
0.999259
1.00158
1.00125
0.999259
0.999172
1.00125
1.00166
0.999172
0.99994
1.00166
0.999615
0.99994
1.00108
0.999615
0.998182
1.00108
1.00127
0.998182
0.995184
1.00127
1.00014
0.995184
0.999375
1.00149
1.00158
0.997485
0.997003
1.00158
1.00125
0.997003
0.998396
1.00125
1.00166
0.998396
0.996224
1.00166
0.999615
0.996224
1.00072
0.999615
0.999442
1.00072
0.999286
0.999442
0.998182
0.999286
1.00517
0.998182
0.995183
1.00517
1.00661
0.995183
0.999375
1.00661
0.995982
0.997485
0.997059
1.00477
1.00464
0.997059
0.997003
1.00464
1.00474
0.997003
0.998038
1.00474
1.00509
0.998038
0.998396
1.00509
1.0056
0.998396
0.996773
1.0056
1.00624
0.996773
0.996224
1.00624
1.00643
0.996224
0.999117
1.00643
1.00488
0.999117
1.00072
1.00488
1.00006
1.00072
0.999286
1.00006
0.995865
0.999286
1.00517
0.995865
0.995147
1.00477
1.00464
0.993524
0.993489
1.00464
1.00474
0.993489
0.993475
1.00474
1.00509
0.993475
0.993496
1.00509
1.0056
0.993496
0.993206
1.0056
1.00624
0.993206
0.992635
1.00624
1.00643
0.992635
0.993033
1.00643
1.00488
0.993033
0.99433
1.00488
1.00006
0.99433
0.999886
0.00073571
-0.000648592
-0.000352573
0.000330353
-0.00535108
-0.000226203
0.00297011
0.00021041
-0.000226203
0.00073571
0.00021041
-0.000352573
0.014433
-0.00535108
-0.00624841
0.00297011
0.00544536
-0.00160263
-0.00110627
0.00136952
-0.00160263
0.000534281
0.00136952
-0.000319285
-0.00110627
0.00136951
0.00073571
-0.000648592
0.103471
0.02724
0.0196788
0.00236827
0.02724
0.00544536
0.00236827
-0.00110627
0.00236827
-0.00110627
-0.000226202
0.00073571
0.0196788
0.00236827
-0.00535107
-0.000226202
0.659636
0.427438
0.0820302
0.0126722
0.427438
0.103471
0.0126722
0.0196788
0.0126722
0.0196788
0.014433
-0.00535107
0.0820302
0.0126722
0.0126105
0.014433
0.744528
0.729013
0.149226
0.136474
0.729013
0.659636
0.136474
0.0820302
0.136474
0.0820302
0.00887906
0.0126105
0.149226
0.136474
0.00826654
0.00887906
0.743613
0.745002
0.149398
0.149642
0.745002
0.744528
0.149642
0.149226
0.742336
0.743613
0.149282
0.149398
0.0153419
-0.000397022
-0.000737564
0.00109091
-0.000397022
0.000954534
0.00109091
-0.000361477
-0.000737564
0.00109091
0.000534281
-0.000105962
0.325723
0.0598226
0.0348378
0.0129683
0.0598226
0.0153419
0.0129683
-0.000737564
0.0129683
-0.000737564
-0.00160263
0.000534281
0.0348378
0.0129683
0.00544536
-0.00160263
0.950676
0.733225
0.68371
0.244629
0.733225
0.325723
0.244629
0.0348378
0.244629
0.0348378
0.02724
0.00544536
0.68371
0.244629
0.103471
0.02724
0.999886
0.997598
0.96853
0.855837
0.96853
0.855837
0.659636
0.427438
0.997598
0.950676
0.855837
0.68371
0.855837
0.68371
0.427438
0.103471
0.993033
0.99433
0.744528
0.729013
0.99433
0.999886
0.729013
0.659636
0.993206
0.992635
0.743613
0.745002
0.992635
0.993033
0.745002
0.744528
0.993475
0.993496
0.742768
0.742336
0.993496
0.993206
0.742336
0.743613
0.993524
0.993489
0.744509
0.743156
0.993489
0.993475
0.743156
0.742768
0.00263388
-0.000234445
-0.00198119
0.00141818
-0.000234445
0.000279208
0.00141818
-0.000690912
-0.00198119
0.00141818
0.000954533
-0.000417227
0.244138
0.0207044
0.0606432
0.0116841
0.0207044
0.00263388
0.0116841
-0.00198119
0.0116841
-0.00198119
-0.000397022
0.000954534
0.0606432
0.0116841
0.0153419
-0.000397023
0.972773
0.804451
0.828563
0.422502
0.804451
0.244138
0.422502
0.0606432
0.422502
0.0606432
0.0598226
0.0153419
0.828563
0.422502
0.325723
0.0598226
0.995147
0.991654
1.00165
1.00011
1.00165
1.00011
0.950676
0.733225
0.991654
0.972773
1.00011
0.828563
1.00011
0.828563
0.733225
0.325723
1.00006
0.995865
0.999886
0.997598
0.995865
0.995147
0.997598
0.950676
0.0445039
0.00581742
0.0156456
-0.00252303
0.00581742
0.000401592
-0.00252303
0.0021342
-0.00252303
0.0021342
-0.000234446
0.000279208
0.0156456
-0.00252303
0.00263388
-0.000234445
0.768499
0.262609
0.470014
0.0576382
0.262609
0.0445039
0.0576382
0.0156456
0.0576382
0.0156456
0.0207044
0.00263388
0.470014
0.0576382
0.244138
0.0207044
0.995982
0.971033
0.991306
0.945342
0.991306
0.945342
0.972773
0.804451
0.971033
0.768499
0.945342
0.470014
0.945342
0.470014
0.804451
0.244138
1.00517
1.00661
0.995147
0.991654
1.00661
0.995982
0.991654
0.972773
0.364036
0.024864
0.184297
0.0192308
0.0192308
0.000113547
0.00581742
0.000401592
0.184297
0.0192308
0.0445039
0.00581742
0.98054
0.912274
0.953145
0.717908
0.912274
0.364036
0.717908
0.184297
0.717908
0.184297
0.262609
0.0445039
0.953145
0.717908
0.768499
0.262609
0.999375
1.0052
0.997976
0.987993
0.997976
0.987993
0.995982
0.971033
1.0052
0.98054
0.987993
0.953145
0.987993
0.953145
0.971033
0.768499
0.162363
0.0134536
0.313355
0.019857
0.313354
0.019857
0.364036
0.024864
0.986991
0.795564
0.98632
0.901162
0.795564
0.162363
0.901162
0.313355
0.901162
0.313354
0.912274
0.364036
0.98632
0.901162
0.98054
0.912274
1.00014
0.99741
1.00006
1.00507
1.00006
1.00507
0.999375
1.0052
0.99741
0.986991
1.00507
0.98632
1.00507
0.98632
1.0052
0.98054
0.0990032
0.0136602
0.162363
0.0134536
0.982644
0.689574
0.983922
0.707905
0.689574
0.0898508
0.707905
0.0990032
0.707905
0.0990032
0.795564
0.162363
0.983922
0.707905
0.986991
0.795564
0.999428
0.997121
0.999832
0.997099
0.999832
0.997099
1.00014
0.99741
0.997121
0.982644
0.997099
0.983922
0.997099
0.983922
0.99741
0.986991
0.959409
0.513697
0.977885
0.642972
0.642972
0.0748427
0.689574
0.0898508
0.977885
0.642972
0.982645
0.689574
0.998969
0.99209
0.999175
0.994372
0.999175
0.994372
0.999428
0.997121
0.99209
0.959409
0.994372
0.977885
0.994372
0.977885
0.997121
0.982644
-4.08113e-05
-3.48539e-05
1.16039e-05
3.14686e-05
-3.48539e-05
-4.15262e-05
3.14686e-05
3.26352e-05
-4.15262e-05
-4.09445e-05
3.26352e-05
1.87831e-05
-4.09445e-05
-4.30415e-05
1.87831e-05
2.07512e-05
-4.30415e-05
-5.5686e-05
2.07512e-05
5.64662e-05
-5.5686e-05
-5.61588e-05
5.64662e-05
6.07151e-05
-5.61588e-05
-2.73109e-05
6.07151e-05
2.96749e-06
-2.73109e-05
-2.95749e-05
2.96749e-06
4.63701e-06
-2.95749e-05
-0.000107228
4.63701e-06
0.00014892
-0.000107228
-0.000217141
0.00014892
0.000180951
-0.000217141
-0.000201363
0.000180951
4.11268e-06
-0.000201363
6.64848e-05
4.11268e-06
5.05549e-05
6.64848e-05
2.1807e-05
5.05549e-05
-4.56243e-05
2.1807e-05
-8.32072e-06
-4.56243e-05
-6.68819e-06
-8.32072e-06
2.09356e-06
-6.68819e-06
1.77225e-05
2.09356e-06
2.11768e-06
1.77225e-05
-5.69842e-06
1.16039e-05
3.14686e-05
-1.92431e-05
-2.06764e-05
3.14686e-05
3.26352e-05
-2.06764e-05
-1.45051e-05
3.26352e-05
1.87831e-05
-1.45051e-05
-1.11366e-05
1.87831e-05
2.07512e-05
-1.11366e-05
-1.49895e-05
2.07512e-05
5.64662e-05
-1.49895e-05
-2.48948e-05
5.64662e-05
6.07151e-05
-2.48948e-05
-2.33196e-05
6.07151e-05
2.96749e-06
-2.33196e-05
-1.11078e-06
2.96749e-06
4.637e-06
-1.11078e-06
1.00017e-06
4.63701e-06
0.00014892
1.00017e-06
-4.70431e-05
0.00014892
0.000180951
-4.70431e-05
-8.27111e-05
0.000180951
4.11268e-06
-8.2711e-05
-4.80697e-05
4.11268e-06
5.05549e-05
-4.80697e-05
3.84342e-06
5.05549e-05
-4.56243e-05
3.84343e-06
1.26792e-05
-4.56243e-05
-6.68819e-06
1.26792e-05
-1.90722e-07
-6.68818e-06
1.77225e-05
-1.90722e-07
-2.29647e-06
1.77225e-05
-5.69842e-06
-2.29647e-06
1.50439e-06
-1.92431e-05
-1.45051e-05
8.34421e-06
8.24704e-06
-1.45051e-05
-1.49895e-05
8.24704e-06
8.01438e-06
-1.49895e-05
-2.33196e-05
8.01438e-06
1.34814e-05
-2.33196e-05
1.00016e-06
1.34814e-05
3.29316e-06
1.00017e-06
-8.27111e-05
3.29316e-06
4.58543e-05
-8.27111e-05
3.84342e-06
4.58543e-05
-2.921e-06
3.84342e-06
-1.90721e-07
-2.921e-06
2.76044e-07
-1.90724e-07
1.50439e-06
2.76044e-07
-7.98722e-07
1.50439e-06
-1.99661e-06
-7.98722e-07
1.05278e-06
8.34421e-06
8.24704e-06
-4.75379e-06
-4.83429e-06
8.24704e-06
8.01438e-06
-4.83429e-06
-4.5938e-06
8.01438e-06
1.34814e-05
-4.5938e-06
-7.69728e-06
1.34814e-05
3.29316e-06
-7.69728e-06
-1.60826e-06
3.29316e-06
4.58543e-05
-1.60825e-06
-2.60446e-05
4.58543e-05
-2.921e-06
-2.60446e-05
1.49233e-06
-2.92099e-06
2.76044e-07
1.49233e-06
-1.46095e-07
2.76044e-07
-7.98722e-07
-1.46095e-07
4.33154e-07
-7.98722e-07
1.05278e-06
4.33154e-07
-5.91179e-07
-4.75379e-06
-4.83429e-06
2.8877e-06
2.95681e-06
-4.83429e-06
-4.5938e-06
2.95681e-06
2.81147e-06
-4.5938e-06
-7.69728e-06
2.81147e-06
4.69119e-06
-7.69728e-06
-1.60826e-06
4.69119e-06
7.56342e-07
-1.60826e-06
-2.60446e-05
7.56342e-07
1.5474e-05
-2.60446e-05
1.49233e-06
1.5474e-05
-6.38302e-07
1.49233e-06
-1.46095e-07
-6.38301e-07
1.08995e-07
-1.46095e-07
4.33154e-07
1.08995e-07
-2.23862e-07
4.33154e-07
-5.91179e-07
-2.23862e-07
3.41404e-07
-5.91179e-07
2.60977e-07
3.41404e-07
-1.62929e-07
2.8877e-06
2.95681e-06
2.51799e-06
2.67337e-06
2.95681e-06
2.81147e-06
2.67337e-06
2.4985e-06
2.81147e-06
4.69119e-06
2.4985e-06
4.12778e-06
4.69119e-06
7.56342e-07
4.12778e-06
1.00746e-06
7.56341e-07
1.5474e-05
1.00746e-06
1.36468e-05
1.5474e-05
-6.38302e-07
1.36468e-05
-8.05388e-07
-6.38302e-07
1.08996e-07
-8.05388e-07
9.99479e-08
1.08995e-07
-2.23863e-07
9.99479e-08
-2.28019e-07
-2.23863e-07
3.41404e-07
-2.28019e-07
3.06584e-07
-1.26691e-05
1.67207e-05
-8.32072e-06
2.09356e-06
1.67206e-05
-7.09318e-06
2.09356e-06
2.11768e-06
9.77489e-05
5.96691e-08
6.64847e-05
2.1807e-05
5.96961e-08
-1.26691e-05
2.1807e-05
-8.32072e-06
-0.000110619
-0.00019541
-0.000217141
-0.000201363
-0.00019541
9.77488e-05
-0.000201363
6.64847e-05
-4.20833e-05
-2.27151e-05
-2.95749e-05
-0.000107228
-2.27151e-05
-0.000110619
-0.000107228
-0.000217141
-2.66361e-05
-3.81161e-05
-5.61588e-05
-2.73109e-05
-3.81161e-05
-4.20833e-05
-2.73109e-05
-2.95749e-05
-3.51484e-05
-2.51891e-05
-4.30415e-05
-5.5686e-05
-2.51891e-05
-2.66361e-05
-5.5686e-05
-5.61588e-05
-2.33766e-05
-3.24597e-05
-4.15262e-05
-4.09444e-05
-3.24598e-05
-3.51484e-05
-4.09444e-05
-4.30415e-05
-2.94455e-05
-1.77829e-05
-4.08113e-05
-3.48539e-05
-1.7783e-05
-2.33766e-05
-3.48539e-05
-4.15262e-05
3.03092e-05
-2.94455e-05
0.000106434
0.000130966
0.000106434
0.000130966
-3.40779e-05
-4.08113e-05
0.000170399
-0.000143902
-5.83381e-05
5.10484e-05
-5.83381e-05
5.10484e-05
-1.26691e-05
1.67207e-05
-0.00136386
-6.76613e-05
0.000499559
3.71826e-05
-6.76614e-05
0.000170399
3.71826e-05
-5.83381e-05
3.71827e-05
-5.83381e-05
5.969e-08
-1.26691e-05
0.000499559
3.71827e-05
9.77489e-05
5.96753e-08
0.00228142
0.00304027
-0.000856885
-0.00110645
0.00304027
-0.00136386
-0.00110645
0.000499559
-0.00110645
0.000499559
-0.000195409
9.77488e-05
-0.000856885
-0.00110645
-0.000110619
-0.000195409
0.000559703
0.000872113
-0.000206373
-0.000332774
0.000872113
0.00228142
-0.000332774
-0.000856885
-0.000332774
-0.000856885
-2.27151e-05
-0.000110619
-0.000206373
-0.000332774
-4.20833e-05
-2.27151e-05
0.000591637
0.000546331
-0.000221488
-0.000196828
0.000546331
0.000559703
-0.000196828
-0.000206373
-0.000196828
-0.000206373
-3.81161e-05
-4.20833e-05
-0.000221488
-0.000196828
-2.66361e-05
-3.81161e-05
0.000562573
0.000545427
-0.000208183
-0.000204415
0.000545427
0.000591637
-0.000204415
-0.000221488
-0.000204415
-0.000221488
-2.51891e-05
-2.66361e-05
-0.000208183
-0.000204415
-3.51484e-05
-2.5189e-05
0.000453976
0.000534595
-0.00016889
-0.000195377
0.000534595
0.000562573
-0.000195377
-0.000208183
-0.000195377
-0.000208183
-3.24597e-05
-3.51484e-05
-0.00016889
-0.000195377
-2.33766e-05
-3.24597e-05
0.000552212
0.00038899
-0.000201831
-0.000142822
0.00038899
0.000453976
-0.000142822
-0.00016889
-0.000142822
-0.00016889
-1.7783e-05
-2.33766e-05
-0.000201831
-0.000142822
-2.94455e-05
-1.77829e-05
0.000779124
0.00062432
-0.00037359
-0.00024637
0.00062432
0.000552212
-0.00024637
-0.000201831
-0.00024637
-0.000201831
3.03092e-05
-2.94455e-05
0.000210411
-0.000352573
-6.76612e-05
0.000170399
0.00297011
0.00021041
-0.00136386
-6.76613e-05
0.0126105
0.014433
-0.00464087
-0.00624841
-0.00624841
0.00297011
0.00304027
-0.00136386
-0.00464087
-0.00624841
0.00228142
0.00304028
0.00826654
0.00887906
-0.000929551
-0.0016794
0.00887906
0.0126105
-0.0016794
-0.00464087
-0.0016794
-0.00464087
0.000872113
0.00228142
-0.000929551
-0.0016794
0.000559703
0.000872113
0.00863376
0.00818538
-0.000871693
-0.000827739
0.00818538
0.00826654
-0.000827739
-0.000929551
-0.000827739
-0.000929551
0.000546331
0.000559703
-0.000871693
-0.000827739
0.000591637
0.000546331
0.00864739
0.00826398
-0.00081281
-0.000766054
0.00826398
0.00863377
-0.000766054
-0.000871693
-0.000766054
-0.000871693
0.000545427
0.000591637
-0.00081281
-0.000766054
0.000562573
0.000545427
0.00851942
0.0083051
-0.000603412
-0.000725067
0.0083051
0.00864739
-0.000725067
-0.00081281
-0.000725067
-0.00081281
0.000534595
0.000562573
-0.000603412
-0.000725067
0.000453976
0.000534595
0.00839274
0.00772686
-0.000818007
-0.000409781
0.00772686
0.00851942
-0.000409781
-0.000603412
-0.000409781
-0.000603412
0.00038899
0.000453976
-0.000818007
-0.000409781
0.000552212
0.00038899
-0.000855513
-0.000818007
0.00062432
0.000552212
0.149642
0.149226
0.00818538
0.00826654
0.149398
0.149642
0.00863377
0.00818538
0.742768
0.742336
0.150156
0.149282
0.149282
0.149398
0.00826398
0.00863377
0.150156
0.149282
0.00864739
0.00826398
0.744509
0.743156
0.154237
0.149737
0.743156
0.742768
0.149737
0.150156
0.149737
0.150156
0.0083051
0.00864739
0.154237
0.149737
0.00851942
0.0083051
0.745978
0.744509
0.153356
0.154237
0.153356
0.154237
0.00772686
0.00851942
2.71054e-06
3.25759e-06
-9.62806e-07
-8.00446e-07
3.25759e-06
-2.02167e-06
-8.00446e-07
6.48756e-07
-2.02167e-06
1.22655e-06
6.48756e-07
-3.82539e-07
1.22655e-06
-7.68242e-07
-3.82539e-07
2.28114e-07
-7.68242e-07
-5.61824e-07
2.28114e-07
1.79132e-07
-1.50767e-06
-1.41725e-05
3.84398e-06
3.86179e-06
-1.41725e-05
-9.62805e-07
3.86179e-06
1.35299e-06
-9.62805e-07
-8.00446e-07
1.353e-06
-4.70626e-07
-8.00445e-07
6.48756e-07
-4.70626e-07
2.18115e-07
6.48756e-07
-3.82538e-07
2.18115e-07
-1.19996e-07
-3.82539e-07
2.28114e-07
-1.19996e-07
8.61173e-08
2.28114e-07
1.79132e-07
8.61173e-08
5.39434e-08
3.84398e-06
3.86179e-06
-7.02867e-07
-2.66389e-06
3.86179e-06
1.35299e-06
-2.66389e-06
-1.02322e-06
1.35299e-06
-4.70626e-07
-1.02322e-06
1.98502e-07
-4.70626e-07
2.18115e-07
1.98502e-07
-6.64458e-08
2.18115e-07
-1.19996e-07
-6.64458e-08
3.688e-08
-1.19996e-07
8.61173e-08
3.688e-08
-2.49896e-08
8.61173e-08
5.39434e-08
-2.49896e-08
-1.37947e-08
8.51885e-07
4.35359e-06
-1.87714e-06
1.80274e-06
4.35359e-06
-7.02867e-07
1.80274e-06
-1.02072e-07
-7.02867e-07
-1.02323e-06
-1.02072e-07
1.24888e-06
-1.02323e-06
1.98502e-07
1.24887e-06
-5.3783e-07
1.98502e-07
-6.64458e-08
-5.3783e-07
2.85672e-07
-6.64458e-08
3.688e-08
2.85672e-07
-1.60823e-07
3.688e-08
-2.49896e-08
-1.60823e-07
9.71567e-08
-2.49896e-08
-1.37947e-08
9.71567e-08
7.54862e-08
-1.45053e-06
-1.50401e-06
-5.65603e-06
9.22918e-07
-1.50401e-06
-7.52925e-07
9.22918e-07
-1.19985e-08
-7.52925e-07
1.17193e-06
-1.19985e-08
1.66232e-07
1.17193e-06
-1.87714e-06
1.66232e-07
1.03686e-06
-1.87714e-06
1.80274e-06
1.03686e-06
6.17704e-07
1.80274e-06
-1.02072e-07
6.17704e-07
-2.60466e-07
-1.02072e-07
1.24887e-06
-2.60466e-07
-3.33735e-07
1.24887e-06
-5.3783e-07
-3.33735e-07
1.28537e-07
-5.3783e-07
2.85672e-07
1.28537e-07
-4.60843e-08
2.85672e-07
-1.60823e-07
-4.60843e-08
2.63479e-08
-1.60823e-07
9.71567e-08
2.63479e-08
-1.54336e-08
9.71567e-08
7.54862e-08
-1.54336e-08
-1.19657e-08
2.11768e-06
-3.09833e-06
-5.69842e-06
-6.54643e-06
-3.09833e-06
-5.65603e-06
-6.54643e-06
6.71812e-06
-5.65603e-06
9.22918e-07
6.71812e-06
4.69947e-06
9.22918e-07
-1.19986e-08
4.69947e-06
-3.28149e-06
-1.19986e-08
1.66232e-07
-3.28149e-06
-2.63486e-06
1.66232e-07
1.03686e-06
-2.63486e-06
1.3752e-06
1.03686e-06
-2.60466e-07
1.3752e-06
-8.05484e-07
-2.60466e-07
-3.33735e-07
-8.05484e-07
6.55163e-07
-3.33735e-07
1.28537e-07
6.55163e-07
-2.95323e-07
1.28537e-07
-4.60843e-08
-2.95323e-07
1.6363e-07
-4.60843e-08
2.63479e-08
1.6363e-07
-9.00724e-08
2.63479e-08
-1.54336e-08
-9.00724e-08
5.14714e-08
-1.54336e-08
-1.19657e-08
5.14714e-08
4.07272e-08
-5.69842e-06
-6.54643e-06
1.50439e-06
5.14394e-07
-6.54643e-06
6.71812e-06
5.14394e-07
-1.99661e-06
6.71812e-06
-3.28149e-06
-1.99661e-06
8.39689e-07
-3.28148e-06
1.3752e-06
8.39689e-07
-2.44303e-07
1.3752e-06
-8.05484e-07
-2.44303e-07
1.87208e-07
-8.05484e-07
6.55163e-07
1.87208e-07
-2.20819e-07
6.55163e-07
-2.95323e-07
-2.20819e-07
9.17654e-08
-2.95323e-07
1.6363e-07
9.17654e-08
-4.94997e-08
1.6363e-07
-9.00724e-08
-4.94997e-08
2.74519e-08
-9.00724e-08
5.14713e-08
2.74519e-08
-1.62314e-08
5.14714e-08
4.07272e-08
-1.62314e-08
-1.35058e-08
-1.99661e-06
8.39689e-07
1.05278e-06
-4.5292e-07
8.39689e-07
-2.44303e-07
-4.52919e-07
1.26741e-07
-2.44303e-07
1.87208e-07
1.26741e-07
-9.42068e-08
1.87208e-07
-2.20819e-07
-9.42068e-08
1.17351e-07
-2.20819e-07
9.17654e-08
1.17351e-07
-5.00625e-08
9.17653e-08
-4.94997e-08
-5.00625e-08
2.61909e-08
-4.94997e-08
2.74519e-08
2.61909e-08
-1.45285e-08
2.74519e-08
-1.62314e-08
-1.45285e-08
8.45933e-09
-1.62314e-08
-1.35058e-08
8.45933e-09
6.77077e-09
1.05278e-06
-4.5292e-07
-5.91179e-07
2.60977e-07
-4.5292e-07
1.26741e-07
2.60977e-07
-6.9417e-08
1.26741e-07
-9.42068e-08
-6.9417e-08
5.15162e-08
-9.42069e-08
1.17351e-07
5.15161e-08
-6.71994e-08
1.17351e-07
-5.00625e-08
-6.71994e-08
2.90119e-08
-5.00625e-08
2.61909e-08
2.90119e-08
-1.47897e-08
2.61908e-08
-1.45285e-08
-1.47897e-08
8.30083e-09
-1.45285e-08
8.45933e-09
8.30083e-09
-4.91463e-09
8.45933e-09
6.77077e-09
-4.91463e-09
-3.88366e-09
2.60977e-07
-6.9417e-08
-1.62929e-07
3.78187e-08
-6.9417e-08
5.15161e-08
3.78187e-08
-2.68477e-08
5.15162e-08
-6.71994e-08
-2.68477e-08
4.0532e-08
-6.71994e-08
2.90119e-08
4.0532e-08
-1.85283e-08
2.90119e-08
-1.47897e-08
-1.85283e-08
8.72488e-09
-1.47897e-08
8.30083e-09
8.72488e-09
-5.10357e-09
8.30083e-09
-4.91463e-09
-5.10358e-09
3.19608e-09
-4.91463e-09
-3.88366e-09
3.19608e-09
2.31177e-09
3.41404e-07
-1.62929e-07
3.06584e-07
-1.37827e-07
-1.62929e-07
3.78187e-08
-1.37827e-07
3.48591e-08
3.78187e-08
-2.68477e-08
3.48591e-08
-2.65319e-08
-2.68477e-08
4.0532e-08
-2.65319e-08
3.54191e-08
4.0532e-08
-1.85283e-08
3.54191e-08
-1.51944e-08
-1.85283e-08
8.72488e-09
-1.51944e-08
7.61148e-09
8.72488e-09
-5.10358e-09
7.61148e-09
-4.2561e-09
-5.10357e-09
3.19608e-09
-4.2561e-09
2.4974e-09
3.19607e-09
2.31177e-09
2.4974e-09
1.95967e-09
-7.09318e-06
7.36363e-06
2.11768e-06
-3.09833e-06
7.36363e-06
-1.45053e-06
-3.09833e-06
-5.65603e-06
-1.61053e-07
3.98417e-06
-7.52925e-07
1.17193e-06
3.98417e-06
8.51885e-07
1.17193e-06
-1.87714e-06
-6.49773e-07
1.03871e-06
-1.45053e-06
-1.50401e-06
1.03871e-06
-1.61053e-07
-1.50401e-06
-7.52925e-07
3.41789e-05
3.75815e-05
6.63682e-07
-3.89633e-05
6.63682e-07
-3.89633e-05
-7.09319e-06
7.36363e-06
3.75815e-05
-6.49775e-07
-3.89633e-05
5.44303e-06
-3.89633e-05
5.44303e-06
7.36363e-06
-1.45053e-06
-0.000143902
3.41789e-05
5.10484e-05
6.63685e-07
5.10484e-05
6.63684e-07
1.67207e-05
-7.09319e-06
2.11137e-06
-1.0789e-05
8.51885e-07
4.35358e-06
-1.0789e-05
3.84398e-06
4.35359e-06
-7.02867e-07
6.97707e-06
3.88585e-06
1.61253e-06
-8.62016e-06
1.61253e-06
-8.62016e-06
-1.61053e-07
3.98417e-06
3.88585e-06
2.11137e-06
-8.62016e-06
4.92156e-06
-8.62016e-06
4.92156e-06
3.98417e-06
8.51885e-07
3.34023e-05
-8.40568e-06
-2.05189e-07
4.90444e-06
-8.40568e-06
6.97707e-06
4.90444e-06
1.61253e-06
4.90444e-06
1.61253e-06
1.03871e-06
-1.61053e-07
-2.05189e-07
4.90444e-06
-6.49774e-07
1.03871e-06
0.000177636
-4.06899e-05
-6.58236e-05
3.07659e-05
-4.06899e-05
3.34023e-05
3.07659e-05
-2.05188e-07
3.07659e-05
-2.0519e-07
3.75815e-05
-6.49776e-07
-6.58235e-05
3.07659e-05
3.41789e-05
3.75815e-05
-0.000648592
0.000177636
0.000330353
-6.58236e-05
0.000330353
-6.58236e-05
-0.000143902
3.41789e-05
-0.000352573
0.000330353
0.000170399
-0.000143902
-4.87154e-06
1.61758e-05
-6.32122e-06
1.261e-05
-6.32122e-06
1.261e-05
2.11137e-06
-1.0789e-05
1.61758e-05
-1.50768e-06
1.261e-05
1.10598e-06
1.261e-05
1.10598e-06
-1.0789e-05