# vtk DataFile Version 2.0
Hex test
ASCII
DATASET UNSTRUCTURED_GRID
POINTS 8748 float
40 46 0
40 47 0
42 46 0
42 47 0
40 47 0
40 48 0
42 47 0
42 48 0
40 48 0
40 50 0
42 48 0
42 50 0
40 50 0
40 52 0
42 50 0
42 52 0
40 52 0
40 54 0
42 52 0
42 54 0
40 54 0
40 56.1667 0
42 54 0
42 56.1667 0
40 56.1667 0
40 60 0
42 56.1667 0
42 60 0
42 42 0
42 43 0
44 42 0
44 43 0
42 43 0
42 44 0
44 43 0
44 44 0
42 44 0
42 45 0
44 44 0
44 45 0
42 45 0
42 46 0
44 45 0
44 46 0
42 46 0
42 48 0
44 46 0
44 48 0
42 48 0
42 50 0
44 48 0
44 50 0
42 50 0
42 52 0
44 50 0
44 52 0
42 52 0
42 54 0
44 52 0
44 54 0
42 54 0
42 56.1667 0
44 54 0
44 56.1667 0
42 56.1667 0
42 60 0
44 56.1667 0
44 60 0
44 40 0
44 41 0
46 40 0
46 41 0
44 41 0
44 42 0
46 41 0
46 42 0
44 42 0
44 43 0
46 42 0
46 43 0
44 43 0
44 44 0
46 43 0
46 44 0
44 44 0
44 45 0
46 44 0
46 45 0
44 45 0
44 46 0
46 45 0
46 46 0
44 46 0
44 48 0
46 46 0
46 48 0
44 48 0
44 50 0
46 48 0
46 50 0
44 50 0
44 52 0
46 50 0
46 52 0
44 52 0
44 54 0
46 52 0
46 54 0
44 54 0
44 56.1667 0
46 54 0
46 56.1667 0
44 56.1667 0
44 60 0
46 56.1667 0
46 60 0
46 37 0
46 38 0
48 37 0
48 38 0
46 38 0
46 39 0
48 38 0
48 39 0
46 39 0
46 40 0
48 39 0
48 40 0
46 40 0
46 41 0
48 40 0
48 41 0
46 41 0
46 42 0
48 41 0
48 42 0
46 42 0
46 44 0
48 42 0
48 44 0
46 44 0
46 46 0
48 44 0
48 46 0
46 46 0
46 48 0
48 46 0
48 48 0
46 48 0
46 50 0
48 48 0
48 50 0
46 50 0
46 52 0
48 50 0
48 52 0
46 52 0
46 54 0
48 52 0
48 54 0
46 54 0
46 56.1667 0
48 54 0
48 56.1667 0
46 56.1667 0
46 60 0
48 56.1667 0
48 60 0
48 38 0
48 39 0
50 38 0
50 39 0
48 39 0
48 40 0
50 39 0
50 40 0
48 40 0
48 42 0
50 40 0
50 42 0
48 42 0
48 44 0
50 42 0
50 44 0
48 44 0
48 46 0
50 44 0
50 46 0
48 46 0
48 48 0
50 46 0
50 48 0
48 48 0
48 50 0
50 48 0
50 50 0
48 50 0
48 52 0
50 50 0
50 52 0
48 52 0
48 54 0
50 52 0
50 54 0
48 54 0
48 56.1667 0
50 54 0
50 56.1667 0
48 56.1667 0
48 60 0
50 56.1667 0
50 60 0
50 38 0
50 40 0
52 38 0
52 40 0
50 40 0
50 42 0
52 40 0
52 42 0
50 42 0
50 44 0
52 42 0
52 44 0
50 44 0
50 46 0
52 44 0
52 46 0
50 46 0
50 48 0
52 46 0
52 48 0
50 48 0
50 50 0
52 48 0
52 50 0
50 50 0
50 52 0
52 50 0
52 52 0
50 52 0
50 54 0
52 52 0
52 54 0
50 54 0
50 56.1667 0
52 54 0
52 56.1667 0
50 56.1667 0
50 60 0
52 56.1667 0
52 60 0
52 38 0
52 40 0
54 38 0
54 40 0
52 40 0
52 42 0
54 40 0
54 42 0
52 42 0
52 44 0
54 42 0
54 44 0
52 44 0
52 46 0
54 44 0
54 46 0
52 46 0
52 48 0
54 46 0
54 48 0
52 48 0
52 50 0
54 48 0
54 50 0
52 50 0
52 52 0
54 50 0
54 52 0
52 52 0
52 54 0
54 52 0
54 54 0
52 54 0
52 56.1667 0
54 54 0
54 56.1667 0
52 56.1667 0
52 60 0
54 56.1667 0
54 60 0
54 38 0
54 40 0
56.1667 38 0
56.1667 40 0
54 40 0
54 42 0
56.1667 40 0
56.1667 42 0
54 42 0
54 44 0
56.1667 42 0
56.1667 44 0
54 44 0
54 46 0
56.1667 44 0
56.1667 46 0
54 46 0
54 48 0
56.1667 46 0
56.1667 48 0
54 48 0
54 50 0
56.1667 48 0
56.1667 50 0
54 50 0
54 52 0
56.1667 50 0
56.1667 52 0
54 52 0
54 54 0
56.1667 52 0
56.1667 54 0
54 54 0
54 56.1667 0
56.1667 54 0
56.1667 56.1667 0
54 56.1667 0
54 60 0
56.1667 56.1667 0
56.1667 60 0
56.1667 38 0
56.1667 40 0
60 38 0
60 40 0
56.1667 40 0
56.1667 42 0
60 40 0
60 42 0
56.1667 42 0
56.1667 44 0
60 42 0
60 44 0
56.1667 44 0
56.1667 46 0
60 44 0
60 46 0
56.1667 46 0
56.1667 48 0
60 46 0
60 48 0
56.1667 48 0
56.1667 50 0
60 48 0
60 50 0
56.1667 50 0
56.1667 52 0
60 50 0
60 52 0
56.1667 52 0
56.1667 54 0
60 52 0
60 54 0
56.1667 54 0
56.1667 56.1667 0
60 54 0
60 56.1667 0
56.1667 56.1667 0
56.1667 60 0
60 56.1667 0
60 60 0
44 38 0
44 39 0
46 38 0
46 39 0
44 39 0
44 40 0
46 39 0
46 40 0
44 37 0
44 38 0
46 37 0
46 38 0
42 40 0
42 41 0
44 40 0
44 41 0
42 41 0
42 42 0
44 41 0
44 42 0
42 38 0
42 39 0
43 38 0
43 39 0
43 38 0
43 39 0
44 38 0
44 39 0
42 39 0
42 40 0
43 39 0
43 40 0
43 39 0
43 40 0
44 39 0
44 40 0
42 36 0
42 37 0
43 36 0
43 37 0
42 37 0
42 38 0
43 37 0
43 38 0
43 37 0
43 38 0
44 37 0
44 38 0
43 36 0
43 37 0
44 36 0
44 37 0
40 44 0
40 45 0
42 44 0
42 45 0
40 45 0
40 46 0
42 45 0
42 46 0
40 42 0
40 43 0
42 42 0
42 43 0
40 43 0
40 44 0
42 43 0
42 44 0
40 40 0
40 41 0
41 40 0
41 41 0
41 40 0
41 41 0
42 40 0
42 41 0
40 41 0
40 42 0
41 41 0
41 42 0
41 41 0
41 42 0
42 41 0
42 42 0
40 38 0
40 39 0
41 38 0
41 39 0
40 39 0
40 40 0
41 39 0
41 40 0
41 39 0
41 40 0
42 39 0
42 40 0
41 38 0
41 39 0
42 38 0
42 39 0
40 37 0
40 38 0
41 37 0
41 38 0
41 37 0
41 38 0
42 37 0
42 38 0
41 36 0
41 37 0
42 36 0
42 37 0
38 44 0
38 45 0
39 44 0
39 45 0
39 44 0
39 45 0
40 44 0
40 45 0
38 42 0
38 43 0
39 42 0
39 43 0
38 43 0
38 44 0
39 43 0
39 44 0
39 43 0
39 44 0
40 43 0
40 44 0
39 42 0
39 43 0
40 42 0
40 43 0
38 40 0
38 41 0
39 40 0
39 41 0
38 41 0
38 42 0
39 41 0
39 42 0
39 41 0
39 42 0
40 41 0
40 42 0
39 40 0
39 41 0
40 40 0
40 41 0
38 39 0
38 40 0
39 39 0
39 40 0
39 39 0
39 40 0
40 39 0
40 40 0
39 38 0
39 39 0
40 38 0
40 39 0
36 42 0
36 43 0
37 42 0
37 43 0
37 43 0
37 44 0
38 43 0
38 44 0
37 42 0
37 43 0
38 42 0
38 43 0
36 41 0
36 42 0
37 41 0
37 42 0
37 41 0
37 42 0
38 41 0
38 42 0
37 40 0
37 41 0
38 40 0
38 41 0
24 46 0
24 47 0
26 46 0
26 47 0
24 47 0
24 48 0
26 47 0
26 48 0
24 48 0
24 50 0
26 48 0
26 50 0
26 46 0
26 47 0
28 46 0
28 47 0
26 47 0
26 48 0
28 47 0
28 48 0
26 48 0
26 50 0
28 48 0
28 50 0
26 50 0
26 52 0
28 50 0
28 52 0
26 52 0
26 54 0
28 52 0
28 54 0
26 54 0
26 56.1667 0
28 54 0
28 56.1667 0
26 56.1667 0
26 60 0
28 56.1667 0
28 60 0
28 48 0
28 50 0
30 48 0
30 50 0
28 50 0
28 52 0
30 50 0
30 52 0
28 52 0
28 54 0
30 52 0
30 54 0
28 54 0
28 56.1667 0
30 54 0
30 56.1667 0
28 56.1667 0
28 60 0
30 56.1667 0
30 60 0
30 48 0
30 50 0
32 48 0
32 50 0
30 50 0
30 52 0
32 50 0
32 52 0
30 52 0
30 54 0
32 52 0
32 54 0
30 54 0
30 56.1667 0
32 54 0
32 56.1667 0
30 56.1667 0
30 60 0
32 56.1667 0
32 60 0
32 48 0
32 50 0
34 48 0
34 50 0
32 50 0
32 52 0
34 50 0
34 52 0
32 52 0
32 54 0
34 52 0
34 54 0
32 54 0
32 56.1667 0
34 54 0
34 56.1667 0
32 56.1667 0
32 60 0
34 56.1667 0
34 60 0
34 48 0
34 50 0
36 48 0
36 50 0
34 50 0
34 52 0
36 50 0
36 52 0
34 52 0
34 54 0
36 52 0
36 54 0
34 54 0
34 56.1667 0
36 54 0
36 56.1667 0
34 56.1667 0
34 60 0
36 56.1667 0
36 60 0
36 48 0
36 50 0
38 48 0
38 50 0
36 50 0
36 52 0
38 50 0
38 52 0
36 52 0
36 54 0
38 52 0
38 54 0
36 54 0
36 56.1667 0
38 54 0
38 56.1667 0
36 56.1667 0
36 60 0
38 56.1667 0
38 60 0
38 46 0
38 47 0
40 46 0
40 47 0
38 47 0
38 48 0
40 47 0
40 48 0
38 48 0
38 50 0
40 48 0
40 50 0
38 50 0
38 52 0
40 50 0
40 52 0
38 52 0
38 54 0
40 52 0
40 54 0
38 54 0
38 56.1667 0
40 54 0
40 56.1667 0
38 56.1667 0
38 60 0
40 56.1667 0
40 60 0
38 45 0
38 46 0
39 45 0
39 46 0
39 45 0
39 46 0
40 45 0
40 46 0
36 46 0
36 47 0
38 46 0
38 47 0
36 47 0
36 48 0
38 47 0
38 48 0
36 44 0
36 45 0
37 44 0
37 45 0
37 44 0
37 45 0
38 44 0
38 45 0
36 45 0
36 46 0
37 45 0
37 46 0
37 45 0
37 46 0
38 45 0
38 46 0
36 43 0
36 44 0
37 43 0
37 44 0
34 46 0
34 47 0
35 46 0
35 47 0
35 46 0
35 47 0
36 46 0
36 47 0
34 47 0
34 48 0
35 47 0
35 48 0
35 47 0
35 48 0
36 47 0
36 48 0
34 44 0
34 45 0
35 44 0
35 45 0
34 45 0
34 46 0
35 45 0
35 46 0
35 45 0
35 46 0
36 45 0
36 46 0
35 44 0
35 45 0
36 44 0
36 45 0
34 42 0
34 43 0
35 42 0
35 43 0
34 43 0
34 44 0
35 43 0
35 44 0
35 43 0
35 44 0
36 43 0
36 44 0
35 42 0
35 43 0
36 42 0
36 43 0
32 46 0
32 47 0
33 46 0
33 47 0
33 46 0
33 47 0
34 46 0
34 47 0
32 47 0
32 48 0
33 47 0
33 48 0
33 47 0
33 48 0
34 47 0
34 48 0
32 44 0
32 45 0
33 44 0
33 45 0
32 45 0
32 46 0
33 45 0
33 46 0
33 45 0
33 46 0
34 45 0
34 46 0
33 44 0
33 45 0
34 44 0
34 45 0
32 42 0
32 43 0
33 42 0
33 43 0
32 43 0
32 44 0
33 43 0
33 44 0
33 43 0
33 44 0
34 43 0
34 44 0
33 42 0
33 43 0
34 42 0
34 43 0
32 41 0
32 42 0
33 41 0
33 42 0
33 41 0
33 42 0
34 41 0
34 42 0
30 46 0
30 47 0
31 46 0
31 47 0
31 46 0
31 47 0
32 46 0
32 47 0
30 47 0
30 48 0
31 47 0
31 48 0
31 47 0
31 48 0
32 47 0
32 48 0
30 44 0
30 45 0
31 44 0
31 45 0
30 45 0
30 46 0
31 45 0
31 46 0
31 45 0
31 46 0
32 45 0
32 46 0
31 44 0
31 45 0
32 44 0
32 45 0
30 42 0
30 43 0
31 42 0
31 43 0
30 43 0
30 44 0
31 43 0
31 44 0
31 43 0
31 44 0
32 43 0
32 44 0
31 42 0
31 43 0
32 42 0
32 43 0
30 40 0
30 41 0
31 40 0
31 41 0
30 41 0
30 42 0
31 41 0
31 42 0
31 41 0
31 42 0
32 41 0
32 42 0
28 46 0
28 47 0
30 46 0
30 47 0
28 47 0
28 48 0
30 47 0
30 48 0
28 44 0
28 45 0
29 44 0
29 45 0
29 44 0
29 45 0
30 44 0
30 45 0
28 45 0
28 46 0
29 45 0
29 46 0
29 45 0
29 46 0
30 45 0
30 46 0
28 42 0
28 43 0
29 42 0
29 43 0
28 43 0
28 44 0
29 43 0
29 44 0
29 43 0
29 44 0
30 43 0
30 44 0
29 42 0
29 43 0
30 42 0
30 43 0
28 40 0
28 41 0
29 40 0
29 41 0
28 41 0
28 42 0
29 41 0
29 42 0
29 41 0
29 42 0
30 41 0
30 42 0
29 40 0
29 41 0
30 40 0
30 41 0
28 39 0
28 40 0
29 39 0
29 40 0
26 44 0
26 45 0
27 44 0
27 45 0
27 44 0
27 45 0
28 44 0
28 45 0
26 45 0
26 46 0
27 45 0
27 46 0
27 45 0
27 46 0
28 45 0
28 46 0
26 42 0
26 43 0
27 42 0
27 43 0
26 43 0
26 44 0
27 43 0
27 44 0
27 43 0
27 44 0
28 43 0
28 44 0
27 42 0
27 43 0
28 42 0
28 43 0
26 40 0
26 41 0
27 40 0
27 41 0
26 41 0
26 42 0
27 41 0
27 42 0
27 41 0
27 42 0
28 41 0
28 42 0
27 40 0
27 41 0
28 40 0
28 41 0
26 39 0
26 40 0
27 39 0
27 40 0
27 39 0
27 40 0
28 39 0
28 40 0
24 44 0
24 45 0
25 44 0
25 45 0
25 44 0
25 45 0
26 44 0
26 45 0
24 45 0
24 46 0
25 45 0
25 46 0
25 45 0
25 46 0
26 45 0
26 46 0
24 42 0
24 43 0
25 42 0
25 43 0
24 43 0
24 44 0
25 43 0
25 44 0
25 43 0
25 44 0
26 43 0
26 44 0
25 42 0
25 43 0
26 42 0
26 43 0
24 40 0
24 41 0
25 40 0
25 41 0
24 41 0
24 42 0
25 41 0
25 42 0
25 41 0
25 42 0
26 41 0
26 42 0
25 40 0
25 41 0
26 40 0
26 41 0
25 39 0
25 40 0
26 39 0
26 40 0
22 44 0
22 45 0
23 44 0
23 45 0
23 44 0
23 45 0
24 44 0
24 45 0
22 43 0
22 44 0
23 43 0
23 44 0
23 43 0
23 44 0
24 43 0
24 44 0
23 42 0
23 43 0
24 42 0
24 43 0
23 41 0
23 42 0
24 41 0
24 42 0
46 20 0
46 21 0
48 20 0
48 21 0
46 21 0
46 22 0
48 21 0
48 22 0
46 22 0
46 23 0
48 22 0
48 23 0
46 23 0
46 24 0
48 23 0
48 24 0
46 24 0
46 25 0
48 24 0
48 25 0
46 25 0
46 26 0
48 25 0
48 26 0
46 32 0
46 33 0
48 32 0
48 33 0
46 33 0
46 34 0
48 33 0
48 34 0
46 34 0
46 35 0
48 34 0
48 35 0
46 35 0
46 36 0
48 35 0
48 36 0
46 36 0
46 37 0
48 36 0
48 37 0
48 20 0
48 21 0
50 20 0
50 21 0
48 21 0
48 22 0
50 21 0
50 22 0
48 22 0
48 23 0
[...]
POINT_DATA 8748
SCALARS phi float 1
LOOKUP_TABLE default
-9.85745e-06
1.08185e-05
6.46858e-06
-1.81267e-06
1.08185e-05
2.85102e-06
-1.81267e-06
-7.46698e-07
2.85102e-06
1.16451e-06
-7.46698e-07
4.52073e-07
1.16451e-06
-7.12727e-07
4.52073e-07
-2.9568e-08
-7.12727e-07
2.7471e-07
-2.95679e-08
5.15964e-08
2.7471e-07
1.23196e-07
5.15964e-08
-1.09285e-07
1.23196e-07
-1.53629e-08
-1.09285e-07
-5.87e-08
4.51631e-05
9.37791e-05
-3.36931e-06
3.77567e-05
9.37791e-05
5.45172e-05
3.77567e-05
1.95949e-05
5.45172e-05
2.83729e-05
1.95949e-05
7.40571e-06
2.83729e-05
6.46858e-06
7.40571e-06
2.42298e-06
6.46858e-06
-7.46698e-07
2.42298e-06
5.40211e-07
-7.46698e-07
4.52073e-07
5.40211e-07
1.86619e-07
4.52073e-07
-2.9568e-08
1.86619e-07
2.32392e-08
-2.9568e-08
5.15964e-08
2.32392e-08
1.81586e-07
5.15964e-08
-1.09285e-07
1.81586e-07
-2.84529e-07
-1.09285e-07
-5.87e-08
-2.84529e-07
-1.47809e-07
-6.41585e-05
-0.000163171
-4.05115e-05
-4.55164e-05
-0.000163171
-3.36931e-06
-4.55164e-05
-1.57269e-05
-3.36931e-06
3.77567e-05
-1.57269e-05
1.75449e-06
3.77567e-05
1.95949e-05
1.75449e-06
4.61073e-06
1.95949e-05
7.40571e-06
4.61073e-06
2.40888e-06
7.40571e-06
2.42298e-06
2.40888e-06
-4.33754e-07
2.42298e-06
5.40211e-07
-4.33754e-07
-6.98346e-07
5.40211e-07
1.86619e-07
-6.98346e-07
1.70645e-06
1.86619e-07
2.32392e-08
1.70645e-06
-4.36178e-07
2.32392e-08
1.81586e-07
-4.36178e-07
1.9509e-07
1.81586e-07
-2.84529e-07
1.9509e-07
-3.08905e-08
-2.84529e-07
-1.47809e-07
-3.08905e-08
-7.58476e-08
-5.54991e-05
8.61066e-05
0.000120914
-5.96336e-05
8.61065e-05
2.63994e-05
-5.96336e-05
-6.54275e-05
2.63994e-05
-4.05115e-05
-6.54275e-05
5.3778e-05
-4.05115e-05
-4.55164e-05
5.3778e-05
4.21453e-05
-4.55164e-05
-1.57269e-05
4.21453e-05
-2.49965e-05
-1.57269e-05
4.61073e-06
-2.49965e-05
1.68147e-05
4.61073e-06
-4.33754e-07
1.68147e-05
-9.8023e-06
-4.33755e-07
-6.98346e-07
-9.8023e-06
4.5054e-06
-6.98346e-07
1.70645e-06
4.5054e-06
-1.84679e-06
1.70645e-06
-4.36178e-07
-1.84679e-06
1.30718e-06
-4.36178e-07
1.9509e-07
1.30718e-06
-5.36706e-07
1.9509e-07
-3.08905e-08
-5.36706e-07
6.05897e-08
-3.08905e-08
-7.58476e-08
6.05897e-08
1.88367e-07
-5.96336e-05
-6.54275e-05
1.3798e-05
7.60624e-06
-6.54275e-05
5.3778e-05
7.60624e-06
-8.73021e-06
5.3778e-05
-2.49965e-05
-8.73022e-06
6.00622e-07
-2.49965e-05
1.68147e-05
6.00623e-07
-2.04681e-06
1.68147e-05
-9.8023e-06
-2.04681e-06
2.04311e-06
-9.8023e-06
4.5054e-06
2.04311e-06
-6.31207e-07
4.5054e-06
-1.84679e-06
-6.31206e-07
-7.25918e-09
-1.84679e-06
1.30718e-06
-7.25933e-09
-1.29549e-07
1.30718e-06
-5.36706e-07
-1.29549e-07
1.54921e-09
-5.36706e-07
6.05898e-08
1.54919e-09
7.1974e-08
6.05897e-08
1.88367e-07
7.1974e-08
2.88379e-08
1.3798e-05
-8.73021e-06
-1.11035e-05
6.73548e-06
-8.73022e-06
6.00622e-07
6.73548e-06
-1.70449e-06
6.00623e-07
-2.04681e-06
-1.70449e-06
1.65079e-06
-2.04681e-06
2.04311e-06
1.6508e-06
-1.24312e-06
2.04311e-06
-6.31207e-07
-1.24312e-06
5.0443e-07
-6.31207e-07
-7.25931e-09
5.0443e-07
-1.56371e-07
-7.25926e-09
-1.29549e-07
-1.56371e-07
1.33406e-07
-1.29549e-07
1.54918e-09
1.33406e-07
-3.90001e-08
1.54921e-09
7.1974e-08
-3.90001e-08
-1.6941e-08
7.1974e-08
2.88379e-08
-1.6941e-08
5.28869e-09
-1.11034e-05
6.73549e-06
4.14793e-06
-2.61589e-06
6.73548e-06
-1.70449e-06
-2.61589e-06
7.7489e-07
-1.70449e-06
1.6508e-06
7.7489e-07
-6.48887e-07
1.6508e-06
-1.24312e-06
-6.48887e-07
4.57409e-07
-1.24312e-06
5.0443e-07
4.57409e-07
-2.12144e-07
5.0443e-07
-1.56371e-07
-2.12144e-07
9.54408e-08
-1.56371e-07
1.33406e-07
9.54408e-08
-6.01605e-08
1.33406e-07
-3.90001e-08
-6.01605e-08
2.00142e-08
-3.90001e-08
-1.6941e-08
2.00142e-08
4.43789e-09
-1.6941e-08
5.28869e-09
4.43789e-09
-4.01307e-09
4.14793e-06
-2.61589e-06
6.55876e-07
-2.1065e-07
-2.61589e-06
7.7489e-07
-2.1065e-07
-1.98805e-07
7.7489e-07
-6.48887e-07
-1.98805e-07
-2.39201e-08
-6.48887e-07
4.57409e-07
-2.39201e-08
9.37754e-08
4.57409e-07
-2.12144e-07
9.37754e-08
1.9213e-08
-2.12144e-07
9.54408e-08
1.92129e-08
-6.69684e-08
9.54408e-08
-6.01605e-08
-6.69684e-08
1.38008e-08
-6.01605e-08
2.00142e-08
1.38008e-08
-9.70613e-09
2.00142e-08
4.43789e-09
-9.70614e-09
5.66023e-09
4.43789e-09
-4.01307e-09
5.66023e-09
4.40609e-09
6.55877e-07
-2.1065e-07
-9.99392e-07
7.24308e-07
-2.1065e-07
-1.98805e-07
7.24308e-07
-2.91505e-07
-1.98805e-07
-2.39202e-08
-2.91505e-07
1.85799e-07
-2.39201e-08
9.37753e-08
1.85799e-07
-1.05326e-07
9.37753e-08
1.92129e-08
-1.05326e-07
7.33195e-08
1.92129e-08
-6.69684e-08
7.33195e-08
-5.20306e-08
-6.69684e-08
1.38008e-08
-5.20306e-08
2.25919e-08
1.38008e-08
-9.70614e-09
2.25919e-08
-9.07812e-09
-9.70613e-09
5.66023e-09
-9.07812e-09
4.15863e-10
5.66023e-09
4.40609e-09
4.15863e-10
2.38885e-09
-5.00826e-05
-3.0983e-05
8.61065e-05
2.63994e-05
-3.0983e-05
-6.41585e-05
2.63994e-05
-4.05115e-05
6.8988e-05
-5.00827e-05
-5.54991e-05
8.61065e-05
-7.49048e-05
-0.000128026
-6.41585e-05
-0.000163171
-0.000128026
4.51631e-05
-0.000163171
-3.36931e-06
-0.000132174
0.000308524
3.56775e-05
-0.00015376
3.56775e-05
-0.00015376
-5.00827e-05
-3.0983e-05
0.000308524
-7.49048e-05
-0.00015376
-1.48456e-05
-0.00015376
-1.48456e-05
-3.0983e-05
-6.41585e-05
0.000113333
0.000144274
2.06859e-05
0.000159171
0.000144274
-0.000132174
0.000159171
3.56775e-05
0.000159171
3.56775e-05
6.8988e-05
-5.00827e-05
2.0686e-05
0.000159171
4.30156e-05
6.8988e-05
1.09249e-06
-2.50652e-05
5.45172e-05
2.83729e-05
-2.50652e-05
-9.85744e-06
2.83729e-05
6.46858e-06
2.2567e-05
-2.98333e-05
4.51631e-05
9.37791e-05
-2.98333e-05
1.0925e-06
9.37791e-05
5.45172e-05
-2.56682e-05
0.000250448
-0.000282484
2.78011e-05
-0.000282484
2.78011e-05
-7.49048e-05
-0.000128026
0.000250448
2.2567e-05
2.78011e-05
-1.58807e-06
2.78011e-05
-1.58807e-06
-0.000128026
4.51631e-05
-0.000812066
0.000805204
0.00119009
0.0020883
0.000805204
-2.56682e-05
0.0020883
-0.000282484
0.0020883
-0.000282484
0.000308524
-7.49048e-05
0.00119009
0.0020883
-0.000132174
0.000308524
-0.000343202
-0.000812066
-0.000193458
0.00119009
-0.000193458
0.00119009
0.000144274
-0.000132174
0.000368232
-0.000193458
0.000113333
0.000144274
-3.26178e-05
6.70378e-06
3.41263e-05
1.23371e-05
3.41263e-05
1.23371e-05
1.09249e-06
-2.50652e-05
-0.000240241
-7.62962e-05
2.83374e-05
-0.000176337
-7.62962e-05
-3.26178e-05
-0.000176337
3.41263e-05
-0.000176337
3.41263e-05
-2.98333e-05
1.09249e-06
2.83374e-05
-0.000176337
2.2567e-05
-2.98333e-05
-0.000666782
0.000703994
0.000471992
0.000644855
0.000703994
-0.000240241
0.000644855
2.83374e-05
0.000644855
2.83374e-05
0.000250448
2.2567e-05
0.000471992
0.000644855
-2.56682e-05
0.000250448
0.0013423
-0.000666782
8.29013e-05
0.000471992
8.29012e-05
0.000471992
0.000805204
-2.56682e-05
0.00261334
8.29015e-05
-0.000812066
0.000805204
-0.00156832
0.00060872
0.00024104
0.000222115
0.000222115
4.2382e-06
-7.62962e-05
-3.26178e-05
0.00024104
0.000222115
-0.000240241
-7.62962e-05
0.00348081
-0.00156832
-0.000543931
0.00024104
-0.000543931
0.00024104
0.000703994
-0.000240241
0.000892193
-0.000543931
-0.000666782
0.000703994
0.00227478
0.00129795
0.00336473
0.00257157
0.00129795
0.000931755
0.00257157
0.00147159
0.000931755
-3.98025e-05
0.00147159
0.000129714
0.00336473
0.00257157
0.00381161
0.00237086
0.00257157
0.00147159
0.00237086
0.00206506
0.00147159
0.000129714
0.00206506
2.86032e-05
0.000129714
2.21838e-05
2.86032e-05
0.000125231
2.21839e-05
-5.40663e-06
0.000125231
-5.19834e-05
-5.40663e-06
-4.49118e-06
-5.19834e-05
8.97329e-06
-4.49118e-06
1.24033e-07
8.97329e-06
2.04951e-05
0.00206506
2.86032e-05
0.00136663
1.09843e-05
2.86032e-05
0.000125231
1.09843e-05
5.74665e-05
0.000125231
-5.19834e-05
5.74665e-05
-3.54095e-05
-5.19834e-05
8.97329e-06
-3.54095e-05
2.7529e-05
8.9733e-06
2.04951e-05
2.7529e-05
2.78142e-05
0.00136663
1.09843e-05
0.000417246
-0.000113354
1.09843e-05
5.74665e-05
-0.000113354
7.57841e-05
5.74665e-05
-3.54095e-05
7.57841e-05
-4.52872e-05
-3.54095e-05
2.7529e-05
-4.52872e-05
2.65578e-05
2.7529e-05
2.78142e-05
2.65578e-05
2.38022e-05
0.000417246
-0.000113354
-3.12462e-05
7.09866e-06
-0.000113354
7.57841e-05
7.09866e-06
1.35216e-06
7.57841e-05
-4.52872e-05
1.35216e-06
1.77051e-06
-4.52872e-05
2.65578e-05
1.77051e-06
-3.73389e-06
2.65578e-05
2.38022e-05
-3.73389e-06
-1.0828e-06
-3.12462e-05
7.09866e-06
4.34994e-05
-1.13387e-05
7.09866e-06
1.35216e-06
-1.13387e-05
7.31948e-06
1.35216e-06
1.77051e-06
7.31948e-06
-3.53603e-06
1.77051e-06
-3.73389e-06
-3.53603e-06
1.21911e-06
-3.73389e-06
-1.0828e-06
1.21911e-06
1.26903e-06
4.34994e-05
-1.13387e-05
2.76861e-06
8.41728e-06
-1.13387e-05
7.31947e-06
8.41728e-06
-3.4663e-06
7.31948e-06
-3.53603e-06
-3.4663e-06
1.97107e-06
-3.53603e-06
1.21911e-06
1.97107e-06
-9.70156e-07
1.21911e-06
1.26903e-06
-9.70156e-07
-8.5331e-07
2.09428e-05
3.38936e-05
-9.85744e-06
1.08185e-05
3.38936e-05
2.76861e-06
1.08185e-05
2.85102e-06
2.76861e-06
8.41728e-06
2.85102e-06
1.16451e-06
8.41728e-06
-3.4663e-06
1.16451e-06
-7.12727e-07
-3.4663e-06
1.97107e-06
-7.12727e-07
2.7471e-07
1.97107e-06
-9.70156e-07
2.7471e-07
1.23196e-07
-9.70156e-07
-8.5331e-07
1.23196e-07
-1.53629e-08
6.70378e-06
2.09428e-05
1.23371e-05
3.41053e-06
1.23371e-05
3.41053e-06
-2.50652e-05
-9.85744e-06
-6.33931e-05
-2.34256e-05
2.09428e-05
3.38936e-05
-2.34256e-05
4.34994e-05
3.38936e-05
2.76861e-06
-0.000319903
3.87208e-05
4.2382e-06
4.58909e-05
4.2382e-06
4.58909e-05
-3.26178e-05
6.70378e-06
3.87208e-05
-6.33931e-05
4.58909e-05
1.53785e-05
4.58909e-05
1.53785e-05
6.70378e-06
2.09428e-05
0.00060872
-0.000319903
0.000222115
4.2382e-06
-1.00404e-05
2.47445e-05
-0.000133658
-5.32208e-05
-0.000133658
-5.32208e-05
-6.33931e-05
-2.34256e-05
2.47445e-05
-3.12463e-05
-5.32208e-05
-1.53322e-05
-5.32208e-05
-1.53322e-05
-2.34256e-05
4.34994e-05
0.00138043
-0.00137371
-8.00443e-05
-0.000150986
-0.00137371
-1.00404e-05
-0.000150986
-0.000133658
-0.000150986
-0.000133658
3.87208e-05
-6.33931e-05
-8.00443e-05
-0.000150986
-0.000319903
3.87208e-05
0.00546593
-0.00282266
-7.71429e-05
0.000109066
-0.00282266
0.00138043
0.000109066
-8.00443e-05
0.000109066
-8.00443e-05
0.00060872
-0.000319903
-7.71428e-05
0.000109066
-0.00156832
0.00060872
0.00129044
0.00025994
-0.000137729
-0.000279192
-0.000137729
-0.000279192
-1.00404e-05
2.47445e-05
0.00025994
0.000417246
-0.000279192
0.000111679
-0.000279192
0.000111679
2.47445e-05
-3.12462e-05
0.00175754
0.000191804
-0.000187855
-0.000434105
0.000191803
0.00129044
-0.000434105
-0.000137729
-0.000434105
-0.000137729
-0.00137371
-1.00404e-05
-0.000187855
-0.000434105
0.00138043
-0.00137371
0.00512007
-0.00229113
0.000656213
-8.26123e-05
-0.00229113
0.00175754
-8.26123e-05
-0.000187855
-8.26123e-05
-0.000187855
-0.00282266
0.00138042
0.000656213
-8.26123e-05
0.00546593
-0.00282266
0.0121283
0.00512007
0.0061035
0.000656213
0.0061035
0.000656213
-0.0114811
0.00546593
0.00559191
0.00335713
0.0029524
0.00156667
0.0029524
0.00156667
0.00129044
0.00025994
0.00335713
0.00136663
0.00156667
0.000854629
0.00156667
0.000854629
0.00025994
0.000417246
0.0103796
-0.00350628
0.0086088
0.000795222
-0.00350628
0.00559191
0.000795222
0.0029524
0.000795222
0.0029524
0.000191804
0.00129044
0.00860879
0.000795222
0.00175754
0.000191804
0.0275211
-0.0230818
0.0225217
-0.0167915
-0.0230818
0.0103796
-0.0167915
0.0086088
-0.0167915
0.00860879
-0.00229113
0.00175754
0.0225217
-0.0167915
0.00512007
-0.00229113
0.497775
0.0245528
0.356709
0.00969708
0.0245528
0.0275211
0.00969708
0.0225217
0.00969708
0.0225217
0.0121283
0.00512007
0.00381161
0.00237086
0.00559191
0.00335713
0.00237086
0.00206506
0.00335712
0.00136663
-0.0028567
0.00150433
0.00467731
-0.0018723
0.00467731
-0.0018723
0.0103796
-0.00350628
0.00150433
0.00381161
-0.0018723
0.00541071
-0.0018723
0.00541071
-0.00350628
0.00559191
-0.0136601
0.00790002
0.0183595
-0.00925642
0.00790002
-0.0028567
-0.00925642
0.00467731
-0.00925642
0.00467731
-0.0230818
0.0103796
0.0183595
-0.00925642
0.0275211
-0.0230818
0.082016
0.0186506
0.403792
0.00844387
0.0186506
-0.0136601
0.00844387
0.0183595
0.00844387
0.0183595
0.0245528
0.0275211
0.403792
0.00844387
0.497775
0.0245528
0.783013
0.0820161
0.936153
0.403792
-0.00172997
0.00216081
-0.00172085
0.00392323
-0.00172085
0.00392323
-0.0028567
0.00150433
0.00216081
0.00336473
0.00392323
0.00326114
0.00392323
0.00326114
0.00150433
0.00381161
-0.00961665
0.00445733
-0.00693831
0.00307515
0.00445733
-0.00172997
0.00307515
-0.00172085
0.00307515
-0.00172085
0.00790002
-0.0028567
-0.00693831
0.00307515
-0.0136601
0.00790002
0.0697477
0.0176251
0.0654037
0.0173425
0.0176251
-0.00961665
0.0173425
-0.00693831
0.0173425
-0.00693831
0.0186506
-0.0136601
0.0654037
0.0173425
0.082016
0.0186506
0.700453
0.0697477
0.624764
0.0654037
0.624764
0.0654037
0.783013
0.082016
-0.00161873
0.00206516
-0.00142022
0.00214673
-0.00142022
0.00214673
-0.00172997
0.00216081
0.00206516
0.00227478
0.00214673
0.00316003
0.00214673
0.00316003
0.00216081
0.00336473
-0.00725174
0.00354285
-0.00757892
0.00338598
0.00354285
-0.00161873
0.00338598
-0.00142022
0.00338598
-0.00142022
0.00445733
-0.00172997
-0.00757892
0.00338598
-0.00961665
0.00445733
0.030996
0.0138194
0.0701836
0.0166267
0.0138194
-0.00725174
0.0166267
-0.00757892
0.0166267
-0.00757892
0.0176251
-0.00961665
0.0701836
0.0166267
0.0697477
0.0176251
0.657777
0.0701836
0.700453
0.0697477
-0.000837062
0.000399679
-0.00095801
0.00102359
-0.00095801
0.00102359
-0.00161873
0.00206516
0.00209551
-0.000837062
0.00198241
-0.00095801
0.00198241
-0.00095801
0.00354285
-0.00161873
-0.00400429
0.00198241
-0.00725174
0.00354285
0.00911201
-0.00400429
0.0138194
-0.00725174
-2.44068e-05
-6.08471e-06
-3.49642e-05
-8.05631e-06
-6.08471e-06
6.86015e-06
-8.05631e-06
3.84595e-05
6.86015e-06
1.40076e-05
3.84595e-05
6.7097e-05
1.40076e-05
1.48159e-05
6.7097e-05
5.62243e-05
1.4816e-05
1.85689e-05
5.62243e-05
2.33245e-05
1.85689e-05
1.1497e-06
2.33245e-05
-3.19415e-05
-0.0010193
-0.000758494
0.000472377
0.000178784
-0.000758494
0.000369602
0.000178784
-4.11464e-05
0.000369602
0.000132632
-4.11464e-05
-0.000372236
0.000132632
-4.25285e-05
-0.000372236
0.000124207
-4.25285e-05
-5.54991e-05
0.000124207
0.000120914
-3.49642e-05
-8.05632e-06
-2.44243e-05
-1.43185e-05
-8.05632e-06
3.84595e-05
-1.43185e-05
-5.27645e-06
3.84595e-05
6.7097e-05
-5.27645e-06
-2.01512e-05
6.7097e-05
5.62243e-05
-2.01512e-05
-2.22626e-05
5.62243e-05
2.33245e-05
-2.22626e-05
1.31e-05
2.33245e-05
-3.19415e-05
1.31e-05
3.2363e-06
-3.19415e-05
-1.94043e-05
3.2363e-06
-8.37186e-05
-1.94043e-05
0.000187863
-8.37186e-05
-3.42623e-05
0.000187863
0.000175643
-3.42623e-05
0.000135571
0.000175643
-0.000283415
0.000135571
7.57917e-05
-0.000283415
-0.000465061
7.57917e-05
-0.000469518
-0.000465061
0.000472376
-0.000469518
-0.000420488
0.000472376
0.000178784
-0.000420488
-0.000126761
0.000178784
-4.11464e-05
-0.000126761
8.46065e-05
-4.11464e-05
-0.000372236
8.46065e-05
8.48845e-05
-0.000372236
0.000124207
8.48845e-05
4.42026e-06
0.000124207
0.000120914
4.42027e-06
-7.65702e-06
0.000120914
-5.96336e-05
-7.65702e-06
1.3798e-05
-2.44243e-05
-5.27645e-06
3.70596e-06
3.21766e-06
-5.27645e-06
-2.22626e-05
3.21766e-06
8.45885e-06
-2.22626e-05
3.23629e-06
8.45885e-06
-4.02344e-06
3.2363e-06
-8.37186e-05
-4.02344e-06
2.11058e-05
-8.37186e-05
-3.42623e-05
2.11058e-05
2.38049e-05
-3.42623e-05
0.000135571
2.38049e-05
-2.5626e-05
0.000135571
7.57917e-05
-2.5626e-05
-2.06868e-05
7.57917e-05
-0.000469518
-2.06868e-05
0.000115595
-0.000469518
-0.000420488
0.000115595
0.000205875
-0.000420488
8.46065e-05
0.000205874
-5.64824e-05
8.46064e-05
4.42027e-06
-5.64824e-05
9.32757e-06
4.42027e-06
1.3798e-05
9.32757e-06
-1.11035e-05
3.70596e-06
3.21766e-06
-2.40853e-06
-9.25898e-07
3.21766e-06
8.45885e-06
-9.25898e-07
-4.52075e-06
8.45885e-06
-4.02344e-06
-4.52075e-06
3.36799e-06
-4.02344e-06
2.38049e-05
3.36799e-06
-1.33584e-05
2.38049e-05
-2.06868e-05
-1.33584e-05
2.04685e-05
-2.06868e-05
0.000205875
2.04685e-05
-0.000102093
0.000205875
-5.64824e-05
-0.000102093
2.0997e-05
-5.64824e-05
9.32757e-06
2.0997e-05
-3.67285e-06
9.32757e-06
-1.11034e-05
-3.67285e-06
4.14793e-06
-2.40853e-06
-9.25898e-07
1.39853e-06
-8.25584e-07
-9.25899e-07
-4.52075e-06
-8.25584e-07
2.04372e-06
-4.52075e-06
3.36799e-06
2.04372e-06
-3.51197e-06
3.36799e-06
-1.33584e-05
-3.51197e-06
7.59224e-06
-1.33584e-05
2.04685e-05
7.59224e-06
-2.36144e-05
2.04685e-05
-0.000102093
-2.36144e-05
3.63898e-05
-0.000102093
2.0997e-05
3.63898e-05
4.64473e-06
2.0997e-05
-3.67285e-06
4.64472e-06
4.60403e-08
-3.67285e-06
4.14793e-06
4.60412e-08
6.55877e-07
1.39853e-06
-8.25583e-07
1.28863e-06
7.355e-08
-8.25584e-07
2.04372e-06
7.35499e-08
2.25356e-06
2.04372e-06
-3.51197e-06
2.25356e-06
-2.39242e-06
-3.51197e-06
7.59224e-06
-2.39242e-06
7.39399e-06
7.59224e-06
-2.36144e-05
7.39399e-06
-1.61355e-05
-2.36144e-05
3.63898e-05
-1.61355e-05
4.75878e-05
3.63898e-05
4.64473e-06
4.75878e-05
-4.51827e-06
4.64472e-06
4.6041e-08
-4.51827e-06
8.2472e-07
4.604e-08
6.55877e-07
8.2472e-07
-9.99392e-07
-0.00019402
-0.00048613
-0.000283415
-0.000465061
-0.00048613
-0.0010193
-0.000465061
0.000472376
-3.54444e-05
0.000104158
0.000187863
0.000175643
0.000104158
-0.00019402
0.000175643
-0.000283415
1.1497e-06
-3.82807e-05
-3.19415e-05
-1.94043e-05
-3.82807e-05
-3.54444e-05
-1.94043e-05
0.000187863
4.30156e-05
6.8988e-05
-4.25285e-05
-5.54991e-05
0.000553393
-9.37124e-05
0.000369602
0.000132632
-9.37125e-05
4.30156e-05
0.000132632
-4.25285e-05
-0.000592491
-0.000467794
-0.0010193
-0.000758495
-0.000467794
0.000553393
-0.000758495
0.000369602
0.000674981
0.000594512
0.00112701
0.000606483
0.00112701
0.000606483
-0.00019402
-0.00048613
0.000594512
-0.00059249
0.000606483
0.00246214
0.000606483
0.00246214
-0.00048613
-0.0010193
-0.000103132
5.5345e-05
-8.78908e-05
-5.01652e-05
5.5345e-05
0.000674981
-5.01651e-05
0.00112701
-5.01651e-05
0.001127
0.000104158
-0.00019402
-8.78908e-05
-5.01651e-05
-3.54444e-05
0.000104158
-8.16581e-05
-6.58232e-05
-7.31689e-05
-0.000117446
-7.31689e-05
-0.000117446
1.1497e-06
-3.82807e-05
-6.58232e-05
-0.000103132
-0.000117446
-8.78908e-05
-0.000117446
-8.78908e-05
-3.82807e-05
-3.54444e-05
-6.59654e-05
-7.05909e-05
1.48159e-05
1.85689e-05
-7.05909e-05
-8.1658e-05
1.85689e-05
1.1497e-06
-7.5511e-05
-5.97336e-05
6.86015e-06
1.40076e-05
-5.97336e-05
-6.59654e-05
1.40076e-05
1.48159e-05
-1.13045e-05
-7.90185e-05
-2.44068e-05
-6.08471e-06
-7.90185e-05
-7.5511e-05
-6.08471e-06
6.86015e-06
-0.00738443
0.000412233
0.00259265
-8.03823e-05
0.000412233
0.000113333
-8.03822e-05
2.0686e-05
-8.03825e-05
2.0686e-05
-9.37124e-05
4.30156e-05
0.00259265
-8.03823e-05
0.000553393
-9.37123e-05
0.0120479
0.0100382
-0.00407849
-0.00355007
0.0100382
-0.00738443
-0.00355007
0.00259265
-0.00355007
0.00259265
-0.000467795
0.000553393
-0.00407849
-0.00355007
-0.00059249
-0.000467795
0.00131993
0.00097615
-0.000156338
-0.000111128
0.000976151
0.0120479
-0.000111129
-0.00407849
-0.000111129
-0.00407849
0.000594512
-0.00059249
-0.000156339
-0.000111129
0.000674981
0.000594512
5.08514e-05
-5.56005e-05
-4.39694e-05
-1.84553e-05
-5.56005e-05
0.00131993
-1.84553e-05
-0.000156338
-1.84553e-05
-0.000156338
5.5345e-05
0.000674981
-4.39694e-05
-1.84553e-05
-0.000103132
5.5345e-05
-1.1615e-05
-0.00018053
9.26558e-06
6.80359e-05
-0.000180531
5.08514e-05
6.80358e-05
-4.39694e-05
6.80358e-05
-4.39694e-05
-6.58232e-05
-0.000103132
9.26558e-06
6.80358e-05
-8.1658e-05
-6.58232e-05
-0.000128192
-0.000102794
4.93573e-05
4.12307e-05
-0.000102794
-1.1615e-05
4.12307e-05
9.26558e-06
4.12307e-05
9.26558e-06
-7.05909e-05
-8.1658e-05
4.93573e-05
4.12306e-05
-6.59654e-05
-7.05909e-05
-0.000218055
-0.000128192
7.57227e-05
4.93573e-05
7.57226e-05
4.93573e-05
-5.97336e-05
-6.59654e-05
2.23731e-05
7.57226e-05
-7.5511e-05
-5.97336e-05
9.69145e-06
2.23731e-05
-7.90185e-05
-7.5511e-05
-0.0240732
0.0203692
0.0100382
-0.00738443
-0.0314436
-0.0240732
0.0120479
0.0100382
-0.00570856
-0.0314436
0.00097615
0.0120479
-0.00381526
-0.00570856
0.00131993
0.00097615
0.00745775
0.00398178
8.92784e-05
0.00044206
0.00398178
0.00699738
0.00044206
-0.00381526
0.00044206
-0.00381526
-5.56005e-05
0.00131993
8.92784e-05
0.00044206
5.08514e-05
-5.56006e-05
0.00773515
0.00670553
0.000244082
0.000611279
0.00670553