# vtk DataFile Version 2.0
Hex test
ASCII
DATASET UNSTRUCTURED_GRID
POINTS 8868 float
22 24 0
22 26 0
24 24 0
24 26 0
24 20 0
24 22 0
26 20 0
26 22 0
24 22 0
24 24 0
26 22 0
26 24 0
24 24 0
24 26 0
26 24 0
26 26 0
24 26 0
24 28 0
26 26 0
26 28 0
24 28 0
24 30 0
26 28 0
26 30 0
24 30 0
24 32 0
26 30 0
26 32 0
26 20 0
26 22 0
28 20 0
28 22 0
26 22 0
26 24 0
28 22 0
28 24 0
26 24 0
26 26 0
28 24 0
28 26 0
26 26 0
26 28 0
28 26 0
28 28 0
26 28 0
26 30 0
28 28 0
28 30 0
26 30 0
26 32 0
28 30 0
28 32 0
28 20 0
28 22 0
30 20 0
30 22 0
28 22 0
28 24 0
30 22 0
30 24 0
28 24 0
28 26 0
30 24 0
30 26 0
28 26 0
28 28 0
30 26 0
30 28 0
28 28 0
28 30 0
30 28 0
30 30 0
28 30 0
28 32 0
30 30 0
30 32 0
30 20 0
30 22 0
32 20 0
32 22 0
30 22 0
30 24 0
32 22 0
32 24 0
30 24 0
30 26 0
32 24 0
32 26 0
30 26 0
30 28 0
32 26 0
32 28 0
30 28 0
30 30 0
32 28 0
32 30 0
30 30 0
30 32 0
32 30 0
32 32 0
30 32 0
30 33 0
32 32 0
32 33 0
30 33 0
30 34 0
32 33 0
32 34 0
32 20 0
32 21 0
34 20 0
34 21 0
32 21 0
32 22 0
34 21 0
34 22 0
32 22 0
32 23 0
34 22 0
34 23 0
32 23 0
32 24 0
34 23 0
34 24 0
32 24 0
32 25 0
34 24 0
34 25 0
32 25 0
32 26 0
34 25 0
34 26 0
32 26 0
32 27 0
34 26 0
34 27 0
32 27 0
32 28 0
34 27 0
34 28 0
32 28 0
32 29 0
34 28 0
34 29 0
32 29 0
32 30 0
34 29 0
34 30 0
32 30 0
32 31 0
34 30 0
34 31 0
32 31 0
32 32 0
34 31 0
34 32 0
32 32 0
32 33 0
34 32 0
34 33 0
32 33 0
32 34 0
34 33 0
34 34 0
34 20 0
34 21 0
36 20 0
36 21 0
34 21 0
34 22 0
36 21 0
36 22 0
34 22 0
34 23 0
36 22 0
36 23 0
34 23 0
34 24 0
36 23 0
36 24 0
34 24 0
34 25 0
36 24 0
36 25 0
34 25 0
34 26 0
36 25 0
36 26 0
34 26 0
34 27 0
36 26 0
36 27 0
34 27 0
34 28 0
36 27 0
36 28 0
34 28 0
34 29 0
36 28 0
36 29 0
34 29 0
34 30 0
36 29 0
36 30 0
34 30 0
34 31 0
36 30 0
36 31 0
34 31 0
34 32 0
36 31 0
36 32 0
42 30 0
42 31 0
43 30 0
43 31 0
42 28 0
42 29 0
43 28 0
43 29 0
42 29 0
42 30 0
43 29 0
43 30 0
43 28 0
43 29 0
44 28 0
44 29 0
42 26 0
42 27 0
43 26 0
43 27 0
42 27 0
42 28 0
43 27 0
43 28 0
43 27 0
43 28 0
44 27 0
44 28 0
42 25 0
42 26 0
43 25 0
43 26 0
40 32 0
40 33 0
41 32 0
41 33 0
40 33 0
40 34 0
41 33 0
41 34 0
41 32 0
41 33 0
42 32 0
42 33 0
40 30 0
40 31 0
41 30 0
41 31 0
40 31 0
40 32 0
41 31 0
41 32 0
41 31 0
41 32 0
42 31 0
42 32 0
41 30 0
41 31 0
42 30 0
42 31 0
40 28 0
40 29 0
41 28 0
41 29 0
40 29 0
40 30 0
41 29 0
41 30 0
41 29 0
41 30 0
42 29 0
42 30 0
41 28 0
41 29 0
42 28 0
42 29 0
40 26 0
40 27 0
41 26 0
41 27 0
40 27 0
40 28 0
41 27 0
41 28 0
41 27 0
41 28 0
42 27 0
42 28 0
41 26 0
41 27 0
42 26 0
42 27 0
40 24 0
40 25 0
41 24 0
41 25 0
40 25 0
40 26 0
41 25 0
41 26 0
41 25 0
41 26 0
42 25 0
42 26 0
41 24 0
41 25 0
42 24 0
42 25 0
40 22 0
40 23 0
41 22 0
41 23 0
40 23 0
40 24 0
41 23 0
41 24 0
38 34 0
38 35 0
39 34 0
39 35 0
38 35 0
38 36 0
39 35 0
39 36 0
39 34 0
39 35 0
40 34 0
40 35 0
38 32 0
38 33 0
39 32 0
39 33 0
38 33 0
38 34 0
39 33 0
39 34 0
39 33 0
39 34 0
40 33 0
40 34 0
39 32 0
39 33 0
40 32 0
40 33 0
38 30 0
38 31 0
39 30 0
39 31 0
38 31 0
38 32 0
39 31 0
39 32 0
39 31 0
39 32 0
40 31 0
40 32 0
39 30 0
39 31 0
40 30 0
40 31 0
38 28 0
38 29 0
39 28 0
39 29 0
38 29 0
38 30 0
39 29 0
39 30 0
39 29 0
39 30 0
40 29 0
40 30 0
39 28 0
39 29 0
40 28 0
40 29 0
38 26 0
38 27 0
39 26 0
39 27 0
38 27 0
38 28 0
39 27 0
39 28 0
39 27 0
39 28 0
40 27 0
40 28 0
39 26 0
39 27 0
40 26 0
40 27 0
38 24 0
38 25 0
39 24 0
39 25 0
38 25 0
38 26 0
39 25 0
39 26 0
39 25 0
39 26 0
40 25 0
40 26 0
39 24 0
39 25 0
40 24 0
40 25 0
38 22 0
38 23 0
39 22 0
39 23 0
38 23 0
38 24 0
39 23 0
39 24 0
39 23 0
39 24 0
40 23 0
40 24 0
39 22 0
39 23 0
40 22 0
40 23 0
38 20 0
38 21 0
39 20 0
39 21 0
38 21 0
38 22 0
39 21 0
39 22 0
39 21 0
39 22 0
40 21 0
40 22 0
36 34 0
36 35 0
37 34 0
37 35 0
37 34 0
37 35 0
38 34 0
38 35 0
36 32 0
36 33 0
37 32 0
37 33 0
37 32 0
37 33 0
38 32 0
38 33 0
36 33 0
36 34 0
37 33 0
37 34 0
37 33 0
37 34 0
38 33 0
38 34 0
36 30 0
36 31 0
38 30 0
38 31 0
36 31 0
36 32 0
38 31 0
38 32 0
36 28 0
36 29 0
38 28 0
38 29 0
36 29 0
36 30 0
38 29 0
38 30 0
36 26 0
36 27 0
38 26 0
38 27 0
36 27 0
36 28 0
38 27 0
38 28 0
36 24 0
36 25 0
38 24 0
38 25 0
36 25 0
36 26 0
38 25 0
38 26 0
36 22 0
36 23 0
38 22 0
38 23 0
36 23 0
36 24 0
38 23 0
38 24 0
36 20 0
36 21 0
38 20 0
38 21 0
36 21 0
36 22 0
38 21 0
38 22 0
34 34 0
34 35 0
35 34 0
35 35 0
35 34 0
35 35 0
36 34 0
36 35 0
34 32 0
34 33 0
36 32 0
36 33 0
34 33 0
34 34 0
36 33 0
36 34 0
24 32 0
24 34 0
26 32 0
26 34 0
24 34 0
24 36 0
26 34 0
26 36 0
26 32 0
26 34 0
28 32 0
28 34 0
26 34 0
26 36 0
28 34 0
28 36 0
28 32 0
28 34 0
30 32 0
30 34 0
28 34 0
28 35 0
30 34 0
30 35 0
28 35 0
28 36 0
30 35 0
30 36 0
30 34 0
30 35 0
32 34 0
32 35 0
30 35 0
30 36 0
32 35 0
32 36 0
38 40 0
38 41 0
39 40 0
39 41 0
38 38 0
38 39 0
39 38 0
39 39 0
38 39 0
38 40 0
39 39 0
39 40 0
38 36 0
38 37 0
39 36 0
39 37 0
38 37 0
38 38 0
39 37 0
39 38 0
36 42 0
36 43 0
37 42 0
37 43 0
36 40 0
36 41 0
37 40 0
37 41 0
36 41 0
36 42 0
37 41 0
37 42 0
37 41 0
37 42 0
38 41 0
38 42 0
37 40 0
37 41 0
38 40 0
38 41 0
36 38 0
36 39 0
37 38 0
37 39 0
36 39 0
36 40 0
37 39 0
37 40 0
37 39 0
37 40 0
38 39 0
38 40 0
37 38 0
37 39 0
38 38 0
38 39 0
36 36 0
36 37 0
37 36 0
37 37 0
36 37 0
36 38 0
37 37 0
37 38 0
37 37 0
37 38 0
38 37 0
38 38 0
37 36 0
37 37 0
38 36 0
38 37 0
36 35 0
36 36 0
37 35 0
37 36 0
37 35 0
37 36 0
38 35 0
38 36 0
34 42 0
34 43 0
35 42 0
35 43 0
34 43 0
34 44 0
35 43 0
35 44 0
35 42 0
35 43 0
36 42 0
36 43 0
34 40 0
34 41 0
35 40 0
35 41 0
34 41 0
34 42 0
35 41 0
35 42 0
35 41 0
35 42 0
36 41 0
36 42 0
35 40 0
35 41 0
36 40 0
36 41 0
34 38 0
34 39 0
35 38 0
35 39 0
34 39 0
34 40 0
35 39 0
35 40 0
35 39 0
35 40 0
36 39 0
36 40 0
35 38 0
35 39 0
36 38 0
36 39 0
34 36 0
34 37 0
35 36 0
35 37 0
34 37 0
34 38 0
35 37 0
35 38 0
35 37 0
35 38 0
36 37 0
36 38 0
35 36 0
35 37 0
36 36 0
36 37 0
34 35 0
34 36 0
35 35 0
35 36 0
35 35 0
35 36 0
36 35 0
36 36 0
32 42 0
32 43 0
33 42 0
33 43 0
32 43 0
32 44 0
33 43 0
33 44 0
33 43 0
33 44 0
34 43 0
34 44 0
33 42 0
33 43 0
34 42 0
34 43 0
32 40 0
32 41 0
33 40 0
33 41 0
32 41 0
32 42 0
33 41 0
33 42 0
33 41 0
33 42 0
34 41 0
34 42 0
33 40 0
33 41 0
34 40 0
34 41 0
32 38 0
32 39 0
33 38 0
33 39 0
32 39 0
32 40 0
33 39 0
33 40 0
33 39 0
33 40 0
34 39 0
34 40 0
33 38 0
33 39 0
34 38 0
34 39 0
32 36 0
32 37 0
33 36 0
33 37 0
33 36 0
33 37 0
34 36 0
34 37 0
32 37 0
32 38 0
33 37 0
33 38 0
33 37 0
33 38 0
34 37 0
34 38 0
32 34 0
32 35 0
34 34 0
34 35 0
32 35 0
32 36 0
34 35 0
34 36 0
30 44 0
30 45 0
31 44 0
31 45 0
31 44 0
31 45 0
32 44 0
32 45 0
30 42 0
30 43 0
31 42 0
31 43 0
30 43 0
30 44 0
31 43 0
31 44 0
31 43 0
31 44 0
32 43 0
32 44 0
31 42 0
31 43 0
32 42 0
32 43 0
30 40 0
30 41 0
31 40 0
31 41 0
30 41 0
30 42 0
31 41 0
31 42 0
31 41 0
31 42 0
32 41 0
32 42 0
31 40 0
31 41 0
32 40 0
32 41 0
30 38 0
30 39 0
31 38 0
31 39 0
30 39 0
30 40 0
31 39 0
31 40 0
31 39 0
31 40 0
32 39 0
32 40 0
31 38 0
31 39 0
32 38 0
32 39 0
30 36 0
30 37 0
31 36 0
31 37 0
31 36 0
31 37 0
32 36 0
32 37 0
30 37 0
30 38 0
31 37 0
31 38 0
31 37 0
31 38 0
32 37 0
32 38 0
28 44 0
28 45 0
29 44 0
29 45 0
29 44 0
29 45 0
30 44 0
30 45 0
28 42 0
28 43 0
29 42 0
29 43 0
28 43 0
28 44 0
29 43 0
29 44 0
29 43 0
29 44 0
30 43 0
30 44 0
29 42 0
29 43 0
30 42 0
30 43 0
28 40 0
28 41 0
29 40 0
29 41 0
28 41 0
28 42 0
29 41 0
29 42 0
29 41 0
29 42 0
30 41 0
30 42 0
29 40 0
29 41 0
30 40 0
30 41 0
28 38 0
28 39 0
29 38 0
29 39 0
28 39 0
28 40 0
29 39 0
29 40 0
29 39 0
29 40 0
30 39 0
30 40 0
29 38 0
29 39 0
30 38 0
30 39 0
28 36 0
28 37 0
29 36 0
29 37 0
29 36 0
29 37 0
30 36 0
30 37 0
28 37 0
28 38 0
29 37 0
29 38 0
29 37 0
29 38 0
30 37 0
30 38 0
26 42 0
26 43 0
27 42 0
27 43 0
27 42 0
27 43 0
28 42 0
28 43 0
26 40 0
26 41 0
27 40 0
27 41 0
26 41 0
26 42 0
27 41 0
27 42 0
27 41 0
27 42 0
28 41 0
28 42 0
27 40 0
27 41 0
28 40 0
28 41 0
26 38 0
26 39 0
27 38 0
27 39 0
26 39 0
26 40 0
27 39 0
27 40 0
27 39 0
27 40 0
28 39 0
28 40 0
27 38 0
27 39 0
28 38 0
28 39 0
26 36 0
26 37 0
27 36 0
27 37 0
27 36 0
27 37 0
28 36 0
28 37 0
26 37 0
26 38 0
27 37 0
27 38 0
27 37 0
27 38 0
28 37 0
28 38 0
25 42 0
25 43 0
26 42 0
26 43 0
24 40 0
24 41 0
25 40 0
25 41 0
24 41 0
24 42 0
25 41 0
25 42 0
25 41 0
25 42 0
26 41 0
26 42 0
25 40 0
25 41 0
26 40 0
26 41 0
24 38 0
24 39 0
25 38 0
25 39 0
24 39 0
24 40 0
25 39 0
25 40 0
25 39 0
25 40 0
26 39 0
26 40 0
25 38 0
25 39 0
26 38 0
26 39 0
24 36 0
24 37 0
25 36 0
25 37 0
25 36 0
25 37 0
26 36 0
26 37 0
24 37 0
24 38 0
25 37 0
25 38 0
25 37 0
25 38 0
26 37 0
26 38 0
23 40 0
23 41 0
24 40 0
24 41 0
22 38 0
22 39 0
23 38 0
23 39 0
22 39 0
22 40 0
23 39 0
23 40 0
23 39 0
23 40 0
24 39 0
24 40 0
23 38 0
23 39 0
24 38 0
24 39 0
22 37 0
22 38 0
23 37 0
23 38 0
23 37 0
23 38 0
24 37 0
24 38 0
24 54 0
24 56.1667 0
26 54 0
26 56.1667 0
24 56.1667 0
24 60 0
26 56.1667 0
26 60 0
26 48 0
26 50 0
28 48 0
28 50 0
26 50 0
26 52 0
28 50 0
28 52 0
26 52 0
26 54 0
28 52 0
28 54 0
26 54 0
26 56.1667 0
28 54 0
28 56.1667 0
26 56.1667 0
26 60 0
28 56.1667 0
28 60 0
28 48 0
28 50 0
30 48 0
30 50 0
28 50 0
28 52 0
30 50 0
30 52 0
28 52 0
28 54 0
30 52 0
30 54 0
28 54 0
28 56.1667 0
30 54 0
30 56.1667 0
28 56.1667 0
28 60 0
30 56.1667 0
30 60 0
30 48 0
30 50 0
32 48 0
32 50 0
30 50 0
30 52 0
32 50 0
32 52 0
30 52 0
30 54 0
32 52 0
32 54 0
30 54 0
30 56.1667 0
32 54 0
32 56.1667 0
30 56.1667 0
30 60 0
32 56.1667 0
32 60 0
32 48 0
32 50 0
34 48 0
34 50 0
32 50 0
32 52 0
34 50 0
34 52 0
32 52 0
32 54 0
34 52 0
34 54 0
32 54 0
32 56.1667 0
34 54 0
34 56.1667 0
32 56.1667 0
32 60 0
34 56.1667 0
34 60 0
34 48 0
34 50 0
36 48 0
36 50 0
34 50 0
34 52 0
36 50 0
36 52 0
34 52 0
34 54 0
36 52 0
36 54 0
34 54 0
34 56.1667 0
36 54 0
36 56.1667 0
34 56.1667 0
34 60 0
36 56.1667 0
36 60 0
36 48 0
36 50 0
38 48 0
38 50 0
36 50 0
36 52 0
38 50 0
38 52 0
36 52 0
36 54 0
38 52 0
38 54 0
36 54 0
36 56.1667 0
38 54 0
38 56.1667 0
36 56.1667 0
36 60 0
38 56.1667 0
38 60 0
38 48 0
38 50 0
40 48 0
40 50 0
38 50 0
38 52 0
40 50 0
40 52 0
38 52 0
38 54 0
40 52 0
40 54 0
38 54 0
38 56.1667 0
40 54 0
40 56.1667 0
38 56.1667 0
38 60 0
40 56.1667 0
[...]
POINT_DATA 8868
SCALARS phi float 1
LOOKUP_TABLE default
1.00004
0.999829
0.999901
0.99972
0.999761
0.999831
1.00042
1.00037
0.999831
0.999901
1.00037
1.00043
0.999901
0.99972
1.00043
1.00031
0.99972
1.00004
1.00031
1.00056
1.00004
0.999244
1.00056
1.00037
0.999244
1.0007
1.00037
1.00035
1.00042
1.00037
0.999228
0.999204
1.00037
1.00043
0.999204
0.99924
1.00043
1.00031
0.99924
0.999172
1.00031
1.00056
0.999172
0.999262
1.00056
1.00037
0.999262
0.998672
1.00037
1.00035
0.998672
1.0001
0.999228
0.999204
1.00152
1.00139
0.999204
0.99924
1.00139
1.00149
0.99924
0.999172
1.00149
1.00144
0.999172
0.999262
1.00144
1.00147
0.999262
0.998672
1.00147
1.00182
0.998672
1.0001
1.00182
0.999598
1.00152
1.00139
0.997437
0.997675
1.00139
1.00149
0.997675
0.998054
1.00149
1.00144
0.998054
0.997312
1.00144
1.00147
0.997312
0.998198
1.00147
1.00182
0.998198
0.992009
1.00182
0.999598
0.992009
1.00263
0.999598
0.995803
1.00263
1.00214
0.995803
0.993387
1.00214
1.00998
0.997437
0.997568
1.0044
1.00574
0.997568
0.997675
1.00574
1.00641
0.997675
0.998032
1.00641
1.00595
0.998032
0.998054
1.00595
1.00603
0.998054
0.997369
1.00603
1.00642
0.997369
0.997312
1.00642
1.00653
0.997312
0.998655
1.00653
1.00544
0.998655
0.998198
1.00544
1.00549
0.998198
0.993861
1.00549
1.00878
0.993861
0.992009
1.00878
1.01213
0.992009
0.99774
1.01213
1.0103
0.99774
1.00263
1.0103
1.00241
1.00263
1.00214
1.00241
0.99329
1.00214
1.00998
0.99329
0.99361
1.0044
1.00574
0.992231
0.992248
1.00574
1.00641
0.992248
0.992529
1.00641
1.00595
0.992529
0.99228
1.00595
1.00603
0.99228
0.992572
1.00603
1.00642
0.992572
0.992261
1.00642
1.00653
0.992261
0.992219
1.00653
1.00544
0.992219
0.99278
1.00544
1.00549
0.99278
0.992395
1.00549
1.00878
0.992395
0.990557
1.00878
1.01213
0.990557
0.989344
1.01213
1.0103
0.989344
0.990318
1.0103
1.00241
0.990318
0.999363
0.000387355
8.40828e-05
-9.90001e-05
3.00766e-05
0.000218808
0.000236651
-0.000117714
-0.000110358
0.000236651
0.000387355
-0.000110358
-9.9e-05
-0.000117714
-0.000110358
-3.27095e-05
9.70893e-06
0.000191585
0.000160706
-7.24519e-05
-7.01587e-05
0.000160706
0.000218808
-7.01587e-05
-0.000117714
-7.01587e-05
-0.000117714
-3.61049e-05
-3.27095e-05
0.000154825
0.000191585
-5.96351e-05
-7.24519e-05
0.0153965
0.0180738
-0.00988822
-0.00998993
0.0180738
-0.00696035
-0.00998993
0.00582385
-0.00988822
-0.00998993
0.00335192
0.00407454
0.00596117
0.00400691
-0.00118853
-0.0017755
0.00400692
0.0153965
-0.0017755
-0.00988822
-0.0017755
-0.00988822
8.40827e-05
0.00335192
-0.00118853
-0.0017755
0.000387355
8.40828e-05
0.00805806
0.00641512
-0.000139415
-0.000274866
0.00641512
0.00596117
-0.000274866
-0.00118853
-0.000274866
-0.00118853
0.000236651
0.000387355
-0.000139415
-0.000274866
0.000218809
0.000236651
0.00837735
0.00789351
-6.89228e-05
-1.09825e-05
0.00789351
0.00805806
-1.09825e-05
-0.000139415
-1.09825e-05
-0.000139415
0.000160706
0.000218809
-6.89228e-05
-1.09825e-05
0.000191585
0.000160706
0.00836748
0.00787273
0.000114318
7.01208e-06
0.00787273
0.00837735
7.01211e-06
-6.89228e-05
7.01209e-06
-6.89228e-05
0.000154825
0.000191585
0.000114318
7.01209e-06
0.000108826
0.000154825
0.00854844
0.00709623
-8.09986e-05
0.000285075
0.00709623
0.00836748
0.000285075
0.000114318
0.0966294
0.0300422
0.019251
0.0034989
0.0300422
0.0049715
0.0034989
-0.00114949
0.019251
0.0034989
-0.00696035
-0.00109712
0.670796
0.420022
0.0806038
0.00538808
0.420022
0.0966294
0.00538808
0.019251
0.00538808
0.019251
0.0180738
-0.00696035
0.0806038
0.00538808
0.0153965
0.0180738
0.762759
0.766488
0.151379
0.16232
0.766488
0.670796
0.16232
0.0806038
0.16232
0.0806038
0.00400692
0.0153965
0.151379
0.16232
0.00596117
0.00400692
0.754963
0.760567
0.164751
0.159276
0.760567
0.762759
0.159276
0.151379
0.159276
0.151379
0.00641512
0.00596117
0.164751
0.159276
0.00805806
0.00641512
0.753562
0.752546
0.166235
0.16553
0.752546
0.754963
0.16553
0.164751
0.16553
0.164751
0.00789351
0.00805806
0.166235
0.16553
0.00837735
0.00789351
0.754691
0.753945
0.169756
0.1656
0.753945
0.753562
0.1656
0.166235
0.1656
0.166235
0.00787273
0.00837735
0.169756
0.1656
0.00836748
0.00787273
0.752862
0.755967
0.165852
0.16852
0.755967
0.754691
0.16852
0.169756
0.16852
0.169756
0.00709623
0.00836748
0.165852
0.16852
0.00854844
0.00709623
0.749337
0.752446
0.157649
0.165645
0.752446
0.752862
0.165645
0.165852
0.165645
0.165852
0.00779596
0.00854844
0.962182
0.7598
0.712638
0.2798
0.712638
0.2798
0.0966294
0.0300422
0.999363
1.00246
0.977843
0.862099
0.977843
0.862099
0.670796
0.420022
1.00246
0.962182
0.862099
0.712638
0.862099
0.712638
0.420022
0.0966294
0.989344
0.990318
0.762759
0.766488
0.990318
0.999363
0.766488
0.670796
0.992395
0.990557
0.754963
0.760567
0.990557
0.989344
0.760567
0.762759
0.992219
0.99278
0.753562
0.752546
0.99278
0.992395
0.752546
0.754963
0.992572
0.992261
0.754691
0.753945
0.992261
0.992219
0.753945
0.753562
0.992529
0.99228
0.752861
0.755967
0.99228
0.992572
0.755967
0.754691
0.992231
0.992248
0.749337
0.752446
0.992248
0.992529
0.752446
0.752861
0.99361
0.984635
0.99886
0.99355
0.99886
0.99355
0.962182
0.7598
1.00241
0.99329
0.999363
1.00246
0.99329
0.99361
1.00246
0.962182
1.0007
0.998585
1.00035
0.998025
0.998584
0.999126
0.998025
0.999209
1.00035
0.998025
1.0001
1.00017
0.998025
0.999209
1.00017
1.00012
1.0001
1.00017
0.999598
0.993387
1.00017
1.0005
0.993387
0.993543
1.0005
1.00012
0.993543
0.995349
0.993387
0.993543
1.00998
1.00658
0.993543
0.995349
1.00658
0.991767
4.3506e-05
9.94259e-05
6.02803e-05
0.00019626
-0.000277232
6.14294e-05
4.66825e-06
0.000214132
6.14295e-05
4.3506e-05
0.000214132
6.02803e-05
0.0049715
-0.00152433
-0.00114949
0.00139146
-0.00152433
-0.000277232
0.00139146
4.66824e-06
-3.48486e-05
-1.23534e-05
-0.000133443
0.000126429
0.000118958
0.000413296
-0.000480826
0.000281299
0.000413296
-3.48486e-05
0.000281299
-0.000133443
0.000281299
-0.000133443
9.94259e-05
3.08305e-06
-0.000480826
0.000281299
4.3506e-05
9.94259e-05
0.0213717
0.00275613
0.00187157
0.00164285
0.00275613
0.000118958
0.00164285
-0.000480825
0.00164285
-0.000480826
6.14294e-05
4.3506e-05
0.00187157
0.00164285
-0.000277232
6.14294e-05
0.328605
0.102414
0.033189
0.0165357
0.102414
0.0213717
0.0165357
0.00187157
0.0165357
0.00187157
-0.00152433
-0.000277232
0.033189
0.0165357
0.0049715
-0.00152433
0.7598
0.328605
0.2798
0.033189
0.2798
0.033189
0.0300422
0.00497149
0.00174753
-0.000810842
-0.000346559
0.000191099
-0.000810842
0.000340083
0.000191099
-0.000120116
-0.000346559
0.000191099
-3.48485e-05
-1.23535e-05
0.0104139
-0.00356897
-0.000157539
0.000828339
-0.00356897
0.00174753
0.000828339
-0.000346559
0.000828339
-0.000346559
0.000413296
-3.48486e-05
-0.000157539
0.000828339
0.000118958
0.000413296
0.351739
0.0339992
0.116072
0.0154671
0.0339992
0.0104139
0.0154671
-0.00015754
0.0154671
-0.00015754
0.00275613
0.000118958
0.116072
0.0154671
0.0213717
0.00275613
0.950239
0.800528
0.786292
0.496249
0.800528
0.351739
0.496249
0.116072
0.496249
0.116072
0.102414
0.0213717
0.786292
0.496249
0.328605
0.102414
0.984635
0.950239
0.99355
0.786292
0.99355
0.786292
0.7598
0.328605
0.00324278
-0.00127631
0.00189636
-0.000662587
-0.00127631
0.000754102
-0.000662587
0.000302509
-0.000662587
0.000302509
-0.000810842
0.000340083
0.00189636
-0.000662587
0.00174753
-0.000810842
0.119377
0.012671
0.0279252
0.00197846
0.012671
0.00324278
0.00197846
0.00189636
0.00197846
0.00189636
-0.00356897
0.00174753
0.0279252
0.00197846
0.0104139
-0.00356897
0.624402
0.327512
0.465728
0.0965732
0.327512
0.119377
0.0965732
0.0279252
0.0965732
0.0279252
0.0339992
0.0104139
0.465728
0.0965733
0.351739
0.0339992
0.991767
0.945163
0.986024
0.908728
0.986024
0.908728
0.950239
0.800528
0.945163
0.624402
0.908728
0.465728
0.908728
0.465728
0.800528
0.351739
1.00998
1.00658
0.99361
0.984635
1.00658
0.991767
0.984635
0.950239
0.00306197
-0.00217644
0.00221374
5.17713e-05
0.00221374
5.17712e-05
0.000754102
0.000119361
0.0139963
-0.00855163
0.00828257
-0.00512138
-0.00855163
0.00306197
-0.00512138
0.00221374
-0.00512138
0.00221374
-0.00127631
0.000754102
0.00828256
-0.00512138
0.00324278
-0.00127631
0.48026
0.0371027
0.309016
0.0253877
0.0371027
0.0139963
0.0253877
0.00828256
0.0253877
0.00828256
0.012671
0.00324278
0.309016
0.0253877
0.119377
0.012671
0.976214
0.917308
0.878674
0.713376
0.917308
0.48026
0.713376
0.309016
0.713376
0.309016
0.327512
0.119377
0.878674
0.713376
0.624402
0.327512
0.995349
1.00448
0.993142
0.989651
0.993142
0.989651
0.991767
0.945163
1.00448
0.976214
0.989651
0.878674
0.989651
0.878674
0.945163
0.624402
-0.00121476
-9.69599e-05
0.00135038
-0.00281625
0.00135038
-0.00281625
0.00306197
-0.00217644
-0.00428439
0.00238537
0.00989835
-0.00471742
0.00238537
-0.00121476
-0.00471742
0.00135038
-0.00471742
0.00135038
-0.00855163
0.00306197
0.00989835
-0.00471742
0.0139963
-0.00855163
0.131814
0.0126478
0.394208
0.0234525
0.0126478
-0.00428439
0.0234525
0.00989835
0.0234525
0.00989835
0.0371027
0.0139963
0.394208
0.0234525
0.48026
0.0371027
0.988587
0.775961
0.984032
0.927289
0.775961
0.131814
0.927289
0.394208
0.927289
0.394208
0.917308
0.48026
0.984032
0.927289
0.976214
0.917308
1.00012
0.999271
0.998165
0.999462
0.998165
0.999462
0.995349
1.00448
0.999271
0.988587
0.999462
0.984032
0.999462
0.984032
1.00448
0.976214
-0.00601686
0.00301987
-0.00611124
0.0030831
-0.00611124
0.0030831
-0.00428439
0.00238537
0.0818921
0.0141102
0.0749357
0.014964
0.0141102
-0.00601686
0.014964
-0.00611124
0.014964
-0.00611124
0.0126478
-0.00428439
0.0749357
0.014964
0.131814
0.0126478
0.985481
0.688367
0.980419
0.656776
0.688367
0.0818921
0.656776
0.0749357
0.656776
0.0749357
0.775961
0.131814
0.980419
0.656776
0.988587
0.775961
0.999209
0.993507
1.00005
0.998347
1.00005
0.998347
1.00012
0.999271
0.993507
0.985481
0.998347
0.980419
0.998347
0.980419
0.999271
0.988587
-0.00594698
0.00297904
-0.00601686
0.00301987
0.0395585
0.0121113
0.0736592
0.0141819
0.0121113
-0.0054498
0.0141819
-0.00594698
0.0141819
-0.00594698
0.0141102
-0.00601686
0.0736592
0.0141819
0.0818921
0.0141102
0.960708
0.515118
0.981097
0.652771
0.515118
0.0395585
0.652771
0.0736592
0.652771
0.0736592
0.688367
0.0818921
0.981097
0.652771
0.985481
0.688367
0.999126
0.993031
0.999015
0.992522
0.999015
0.992522
0.999209
0.993507
0.993031
0.960708
0.992522
0.981097
0.992522
0.981097
0.993507
0.985481
0.0226819
0.00871542
0.0395585
0.0121113
0.929393
0.368876
0.935678
0.393745
0.368876
0.0181513
0.393745
0.0226819
0.393745
0.0226819
0.515118
0.0395585
0.935678
0.393745
0.960708
0.515118
0.986834
0.929393
0.988839
0.935678
0.988839
0.935678
0.993031
0.960708
3.50023e-06
-6.60509e-06
6.18285e-06
-6.84526e-06
-6.60509e-06
-4.20131e-06
-6.84526e-06
-4.68126e-06
0.000711071
8.63008e-05
0.000784242
6.11312e-05
8.63008e-05
-3.9745e-06
6.11312e-05
2.14556e-05
-3.9745e-06
6.18285e-06
2.14556e-05
-4.73003e-06
6.18285e-06
-6.84526e-06
-4.73003e-06
-4.33239e-06
-6.84526e-06
-4.68126e-06
-4.33239e-06
-1.57242e-06
0.000784242
6.11312e-05
0.000578733
1.30923e-05
6.11312e-05
2.14556e-05
1.30924e-05
2.52255e-05
2.14556e-05
-4.73003e-06
2.52255e-05
-1.5505e-05
-4.73003e-06
-4.33239e-06
-1.5505e-05
1.09461e-05
-4.33239e-06
-1.57242e-06
1.09461e-05
6.97262e-06
0.000578733
1.30924e-05
0.000185061
2.00818e-05
1.30924e-05
2.52255e-05
2.00818e-05
4.92464e-06
2.52255e-05
-1.5505e-05
4.92464e-06
-5.19275e-06
-1.5505e-05
1.09461e-05
-5.19275e-06
2.77194e-06
1.09461e-05
6.97262e-06
2.77194e-06
3.3538e-07
0.000185061
2.00818e-05
-3.84688e-06
2.71194e-06
2.00818e-05
4.92464e-06
2.71194e-06
3.87305e-06
4.92464e-06
-5.19275e-06
3.87305e-06
-1.2895e-06
-5.19275e-06
2.77194e-06
-1.2895e-06
-1.00124e-07
2.77194e-06
3.3538e-07
-1.00124e-07
5.52456e-07
-3.84688e-06
2.71194e-06
1.23289e-05
4.7086e-06
2.71194e-06
3.87305e-06
4.7086e-06
-5.19464e-07
3.87305e-06
-1.2895e-06
-5.19464e-07
4.27902e-07
-1.2895e-06
-1.00124e-07
4.27902e-07
-5.83165e-07
-1.00124e-07
5.52456e-07
-5.83165e-07
-4.56786e-07
1.23289e-05
4.7086e-06
3.24225e-06
1.7139e-07
4.7086e-06
-5.19463e-07
1.7139e-07
3.30832e-07
-5.19463e-07
4.27903e-07
3.30832e-07
-1.1014e-07
4.27902e-07
-5.83165e-07
-1.1014e-07
1.36154e-07
-5.83165e-07
-4.56786e-07
1.36154e-07
1.59367e-07
3.24225e-06
1.7139e-07
-3.21924e-07
1.71566e-07
1.7139e-07
3.30832e-07
1.71566e-07
-6.81757e-08
3.30832e-07
-1.1014e-07
-6.81757e-08
8.94889e-08
-1.1014e-07
1.36154e-07
8.94889e-08
5.21761e-08
1.36154e-07
1.59367e-07
5.21761e-08
8.86704e-09
7.24485e-07
4.55116e-06
1.22306e-06
1.15637e-06
4.55116e-06
-3.21924e-07
1.15637e-06
-2.9364e-09
-3.21924e-07
1.71566e-07
-2.93643e-09
4.1753e-07
1.71566e-07
-6.81757e-08
4.1753e-07
-1.44875e-07
-6.81757e-08
8.94889e-08
-1.44875e-07
1.0006e-07
8.94889e-08
5.21761e-08
1.0006e-07
-9.14562e-08
5.21761e-08
8.86704e-09
-9.14562e-08
-6.8908e-08
1.96421e-05
7.97491e-06
1.10835e-05
3.34893e-06
7.97491e-06
1.22307e-06
3.34893e-06
1.95598e-06
1.22306e-06
1.15637e-06
1.95598e-06
7.03896e-07
1.15637e-06
-2.93636e-09
7.03896e-07
-4.01965e-07
-2.93641e-09
4.1753e-07
-4.01965e-07
3.36073e-07
4.1753e-07
-1.44875e-07
3.36073e-07
-1.17355e-07
-1.44875e-07
1.0006e-07
-1.17355e-07
1.28525e-07
1.0006e-07
-9.14562e-08
1.28525e-07
-1.29872e-07
-9.14562e-08
-6.8908e-08
-1.29872e-07
-5.09359e-08
1.95598e-06
-4.01965e-07
-9.49004e-07
1.97389e-07
-4.01965e-07
3.36073e-07
1.97389e-07
3.54654e-07
3.36073e-07
-1.17355e-07
3.54654e-07
-1.15366e-08
-1.17355e-07
1.28525e-07
-1.15365e-08
-2.57594e-09
1.28525e-07
-1.29872e-07
-2.57593e-09
2.08358e-08
-1.29872e-07
-5.09359e-08
2.08358e-08
1.17436e-08
-9.49004e-07
1.97389e-07
-2.15053e-06
8.88111e-07
1.97389e-07
3.54654e-07
8.88111e-07
-2.85966e-07
3.54654e-07
-1.15366e-08
-2.85966e-07
2.58259e-07
-1.15366e-08
-2.57593e-09
2.58259e-07
-7.75877e-08
-2.57594e-09
2.08358e-08
-7.75877e-08
-3.22239e-08
2.08358e-08
1.17436e-08
-3.22239e-08
-1.10154e-09
8.88111e-07
-2.85966e-07
-2.17517e-08
-8.2329e-08
-2.85966e-07
2.58259e-07
-8.2329e-08
1.10825e-09
2.58259e-07
-7.75877e-08
1.10824e-09
-1.98135e-08
-7.75877e-08
-3.22239e-08
-1.98135e-08
2.88588e-08
-3.22239e-08
-1.10154e-09
2.88588e-08
8.90572e-09
-2.17516e-08
-8.2329e-08
5.15124e-08
-1.46575e-09
-8.2329e-08
1.10824e-09
-1.46575e-09
1.46916e-08
1.10825e-09
-1.98135e-08
1.46916e-08
1.28338e-09
-1.98135e-08
2.88588e-08
1.28338e-09
-1.02905e-08
2.88588e-08
8.90572e-09
-1.02905e-08
-2.84555e-09
5.15124e-08
-1.46574e-09
-1.24208e-08
5.1664e-09
-1.46574e-09
1.46916e-08
5.1664e-09
-4.50683e-09
1.46916e-08
1.28338e-09
-4.50683e-09
-6.48145e-10
1.28338e-09
-1.02905e-08
-6.48145e-10
3.70703e-09
-1.02905e-08
-2.84555e-09
3.70703e-09
1.04286e-09
-1.24208e-08
5.1664e-09
-1.46153e-08
-1.24868e-08
5.1664e-09
-4.50683e-09
-1.24868e-08
-1.84115e-09
-4.50683e-09
-6.48145e-10
-1.84115e-09
-5.56079e-10
-6.48145e-10
3.70703e-09
-5.56079e-10
1.48414e-09
3.70703e-09
1.04286e-09
1.48414e-09
4.78973e-10
-1.24868e-08
-1.84115e-09
-2.77727e-09
-1.63649e-10
-1.84115e-09
-5.56079e-10
-1.63649e-10
3.5099e-10
-5.56079e-10
1.48414e-09
3.5099e-10
-4.89532e-10
1.48414e-09
4.78973e-10
-4.89532e-10
-6.98029e-11
-1.09538e-06
-1.36377e-06
1.96421e-05
7.97491e-06
-1.36377e-06
7.24484e-07
7.97491e-06
1.22306e-06
-7.42707e-06
-1.09538e-06
8.91458e-06
8.53331e-06
8.91458e-06
8.53331e-06
3.102e-05
1.96421e-05
9.62893e-06
7.20476e-06
7.24484e-07
4.55116e-06
7.20476e-06
3.24225e-06
4.55116e-06
-3.21924e-07
-4.06195e-06
1.50273e-05
3.36607e-06
-5.44223e-06
3.36607e-06
-5.44223e-06
-1.09538e-06
-1.36377e-06
1.50273e-05
9.62893e-06
-5.44223e-06
8.05005e-06
-5.44223e-06
8.05005e-06
-1.36377e-06
7.24484e-07
3.08304e-06
-2.99291e-05
5.36565e-06
-4.50122e-05
-2.99291e-05
-4.06196e-06
-4.50122e-05
3.36607e-06
-4.50122e-05
3.36607e-06
-7.42707e-06
-1.09538e-06
-1.0636e-05
3.84486e-06
1.69782e-06
1.17674e-05
1.69782e-06
1.17674e-05
9.62893e-06
7.20476e-06
3.84486e-06
1.23289e-05
1.17674e-05
1.24353e-05
1.17674e-05
1.24353e-05
7.20476e-06
3.24225e-06
-6.70051e-06
-5.51401e-05
-3.69719e-05
6.5546e-06
-5.51401e-05
-1.0636e-05
6.5546e-06
1.69781e-06
6.55459e-06
1.69781e-06
1.50273e-05
9.62893e-06
-3.69719e-05
6.5546e-06
-4.06196e-06
1.50273e-05
-1.23535e-05
-6.7005e-06
0.000126429
-3.69719e-05
0.000126429
-3.69719e-05
-2.99291e-05
-4.06196e-06
-0.000133443
0.000126429
3.08305e-06
-2.99291e-05
-2.71966e-05
-5.00948e-05
-6.93766e-05
-6.23866e-05
-6.93766e-05
-6.23866e-05
-1.0636e-05
3.84487e-06
-5.00948e-05
-3.84688e-06
-6.23866e-05
-4.85016e-06
-6.23866e-05
-4.85016e-06
3.84487e-06
1.23289e-05
0.000340083
-0.000351404
-0.000120116
-3.90881e-05
-0.000351405
-2.71966e-05
-3.90881e-05
-6.93765e-05
-3.90881e-05
-6.93766e-05
-5.51401e-05
-1.0636e-05
-0.000120116
-3.90882e-05
-6.70051e-06
-5.51401e-05
0.000191099
-0.000120116
-1.23535e-05
-6.7005e-06
0.00042809
0.000150645
4.34879e-05
-2.93406e-05
4.34879e-05
-2.93406e-05
-2.71966e-05
-5.00948e-05
0.000150645
0.000185061
-2.93405e-05
5.48892e-05
-2.93405e-05
5.48892e-05
-5.00948e-05
-3.84688e-06
0.000754102
0.000119361
0.000302509
-0.000279253
0.000119361
0.00042809
-0.000279253
4.34879e-05
-0.000279253
4.34879e-05
-0.000351404
-2.71966e-05
0.000302509
-0.000279253
0.000340083
-0.000351404
0.00202564
0.00127104
0.00111097
0.000584578
0.00111097
0.000584578
0.00042809
0.000150645
0.00127104
0.000578733
0.000584578
0.000380166
0.000584578
0.000380166
0.000150645
0.000185061
-0.00217644
0.00202564
5.17712e-05
0.00111097
5.17713e-05
0.00111097
0.000119361
0.00042809
0.00127282
0.00118854
0.00203696
0.00148574
0.00203696
0.00148574
0.00202564
0.00127104
0.00118854
0.000784242
0.00148574
0.000717901
0.00148574
0.000717901
0.00127104
0.000578733
-9.69597e-05
0.00127282
-0.00281625
0.00203696
-0.00281625
0.00203696
-0.00217644
0.00202564
-2.69641e-05
-4.44094e-05
-1.37851e-05
-1.13657e-05
-4.44094e-05
8.14486e-06
-1.13657e-05
-2.14153e-06
8.14486e-06
2.39617e-05
-2.14153e-06
2.3947e-06
2.39617e-05
1.10835e-05
2.3947e-06
2.76336e-06
1.10835e-05
3.34893e-06
2.76336e-06
8.60606e-07
3.34893e-06
1.95598e-06
8.60606e-07
-9.49004e-07
3.09799e-05
8.72415e-05
8.83386e-05
0.000113269
8.72415e-05
-8.40669e-05
0.000113269
0.00017154
-8.40668e-05
-7.91186e-06
0.00017154
0.000430615
-7.91186e-06
-0.000298562
0.000430615
0.000296321
-0.000298562
-0.000328122
0.000296321
-6.12954e-05
-0.000328122
8.47469e-05
-6.12954e-05
-4.22931e-05
8.47469e-05
4.87882e-05
-4.22931e-05
-0.000105755
4.87882e-05
-1.13688e-05
-0.000105755
8.87334e-06
-1.13688e-05
-5.04818e-06
8.87334e-06
3.93431e-05
-5.04818e-06
1.44407e-05
3.93431e-05
-1.03797e-05
1.44407e-05
-9.93573e-07
-1.03797e-05
-1.37181e-05
-9.93573e-07
-1.37851e-05
-1.37181e-05
1.53027e-05
-1.37851e-05
-1.13657e-05
1.53027e-05
1.09615e-05
-1.13657e-05
-2.14153e-06
1.09615e-05
-6.65223e-06
-2.14153e-06
2.3947e-06
-6.65223e-06
-4.7183e-06
2.3947e-06
2.76336e-06
-4.7183e-06
4.38892e-06
2.76336e-06
-9.49004e-07
4.38892e-06
-2.15053e-06
8.83386e-05
0.000113269
-1.07772e-05
6.20476e-05
0.000113269
0.00017154
6.20476e-05
9.48419e-05
0.00017154
0.000430615
9.48419e-05
-3.43315e-08
0.000430615
0.000296321
-3.43315e-08
-9.87318e-05
0.000296321
-6.12954e-05
-9.87319e-05
-7.48271e-05
-6.12954e-05
-4.22931e-05
-7.48271e-05
-3.09359e-06
-4.22931e-05
-0.000105755
-3.09358e-06
1.96146e-05
-0.000105755
8.87333e-06
1.96146e-05
9.31235e-06
8.87334e-06
3.93431e-05
9.31235e-06
1.88496e-06
3.93431e-05
-1.03797e-05
1.88496e-06
-1.67301e-07
-1.03796e-05
-1.37181e-05
-1.673e-07
-1.51143e-06
-1.37181e-05
1.53027e-05
-1.51143e-06
-2.09912e-06
1.53027e-05
-6.65223e-06
-2.09912e-06
-1.05719e-07
-6.65223e-06
4.38892e-06
-1.05719e-07
-3.81021e-07
4.38892e-06
-2.15053e-06
-3.8102e-07
2.92065e-07
-2.15053e-06
8.88111e-07
2.92065e-07
-2.17516e-08
-1.07772e-05
9.48419e-05
9.60178e-06
-7.58787e-06
9.48419e-05
-9.87318e-05
-7.58787e-06
6.13628e-05
-9.87318e-05
-3.09358e-06
6.13628e-05
-9.70747e-06
-3.09358e-06
9.31235e-06
-9.70748e-06
-9.66691e-07
9.31235e-06
-1.67301e-07
-9.66691e-07
-9.0403e-07
-1.673e-07
-2.09912e-06
-9.04029e-07
1.67016e-06
-2.09912e-06
-1.05719e-07
1.67016e-06
-3.4682e-07
-1.05719e-07
-3.8102e-07
-3.4682e-07
3.46766e-07
-3.8102e-07
2.92065e-07
3.46766e-07
-1.7473e-07
2.92065e-07
-2.17516e-08
-1.7473e-07
5.15124e-08
9.60178e-06
-7.58787e-06
-5.02805e-06
7.13267e-06
-7.58787e-06