# vtk DataFile Version 2.0
Hex test
ASCII
DATASET UNSTRUCTURED_GRID
POINTS 8588 float
24 28 0
24 30 0
26 28 0
26 30 0
24 30 0
24 32 0
26 30 0
26 32 0
24 32 0
24 34 0
26 32 0
26 34 0
24 34 0
24 36 0
26 34 0
26 36 0
26 26 0
26 28 0
28 26 0
28 28 0
26 28 0
26 30 0
28 28 0
28 30 0
26 30 0
26 32 0
28 30 0
28 32 0
26 32 0
26 34 0
28 32 0
28 34 0
26 34 0
26 36 0
28 34 0
28 36 0
28 24 0
28 26 0
30 24 0
30 26 0
28 26 0
28 28 0
30 26 0
30 28 0
28 28 0
28 30 0
30 28 0
30 30 0
28 30 0
28 32 0
30 30 0
30 32 0
28 32 0
28 34 0
30 32 0
30 34 0
28 34 0
28 35 0
30 34 0
30 35 0
28 35 0
28 36 0
30 35 0
30 36 0
30 24 0
30 26 0
32 24 0
32 26 0
30 26 0
30 28 0
32 26 0
32 28 0
30 28 0
30 30 0
32 28 0
32 30 0
30 30 0
30 32 0
32 30 0
32 32 0
30 32 0
30 33 0
32 32 0
32 33 0
30 33 0
30 34 0
32 33 0
32 34 0
30 34 0
30 35 0
32 34 0
32 35 0
30 35 0
30 36 0
32 35 0
32 36 0
32 24 0
32 25 0
34 24 0
34 25 0
32 25 0
32 26 0
34 25 0
34 26 0
32 26 0
32 27 0
34 26 0
34 27 0
32 27 0
32 28 0
34 27 0
34 28 0
32 28 0
32 29 0
34 28 0
34 29 0
32 29 0
32 30 0
34 29 0
34 30 0
32 30 0
32 31 0
34 30 0
34 31 0
32 31 0
32 32 0
34 31 0
34 32 0
32 32 0
32 33 0
34 32 0
34 33 0
32 33 0
32 34 0
34 33 0
34 34 0
34 24 0
34 25 0
36 24 0
36 25 0
34 25 0
34 26 0
36 25 0
36 26 0
34 26 0
34 27 0
36 26 0
36 27 0
34 27 0
34 28 0
36 27 0
36 28 0
34 28 0
34 29 0
36 28 0
36 29 0
34 29 0
34 30 0
36 29 0
36 30 0
34 30 0
34 31 0
36 30 0
36 31 0
34 31 0
34 32 0
36 31 0
36 32 0
40 30 0
40 31 0
41 30 0
41 31 0
40 31 0
40 32 0
41 31 0
41 32 0
40 29 0
40 30 0
41 29 0
41 30 0
38 34 0
38 35 0
39 34 0
39 35 0
38 35 0
38 36 0
39 35 0
39 36 0
38 32 0
38 33 0
39 32 0
39 33 0
38 33 0
38 34 0
39 33 0
39 34 0
39 33 0
39 34 0
40 33 0
40 34 0
39 32 0
39 33 0
40 32 0
40 33 0
38 30 0
38 31 0
39 30 0
39 31 0
38 31 0
38 32 0
39 31 0
39 32 0
39 31 0
39 32 0
40 31 0
40 32 0
39 30 0
39 31 0
40 30 0
40 31 0
38 28 0
38 29 0
39 28 0
39 29 0
38 29 0
38 30 0
39 29 0
39 30 0
39 29 0
39 30 0
40 29 0
40 30 0
39 28 0
39 29 0
40 28 0
40 29 0
38 26 0
38 27 0
39 26 0
39 27 0
38 27 0
38 28 0
39 27 0
39 28 0
39 27 0
39 28 0
40 27 0
40 28 0
36 38 0
36 39 0
37 38 0
37 39 0
36 39 0
36 40 0
37 39 0
37 40 0
36 36 0
36 37 0
37 36 0
37 37 0
36 37 0
36 38 0
37 37 0
37 38 0
37 37 0
37 38 0
38 37 0
38 38 0
37 36 0
37 37 0
38 36 0
38 37 0
36 34 0
36 35 0
37 34 0
37 35 0
36 35 0
36 36 0
37 35 0
37 36 0
37 35 0
37 36 0
38 35 0
38 36 0
37 34 0
37 35 0
38 34 0
38 35 0
36 32 0
36 33 0
37 32 0
37 33 0
37 32 0
37 33 0
38 32 0
38 33 0
36 33 0
36 34 0
37 33 0
37 34 0
37 33 0
37 34 0
38 33 0
38 34 0
36 30 0
36 31 0
38 30 0
38 31 0
36 31 0
36 32 0
38 31 0
38 32 0
36 28 0
36 29 0
38 28 0
38 29 0
36 29 0
36 30 0
38 29 0
38 30 0
36 26 0
36 27 0
38 26 0
38 27 0
36 27 0
36 28 0
38 27 0
38 28 0
36 24 0
36 25 0
38 24 0
38 25 0
36 25 0
36 26 0
38 25 0
38 26 0
34 40 0
34 41 0
35 40 0
35 41 0
34 38 0
34 39 0
35 38 0
35 39 0
34 39 0
34 40 0
35 39 0
35 40 0
35 39 0
35 40 0
36 39 0
36 40 0
35 38 0
35 39 0
36 38 0
36 39 0
34 36 0
34 37 0
35 36 0
35 37 0
34 37 0
34 38 0
35 37 0
35 38 0
35 37 0
35 38 0
36 37 0
36 38 0
35 36 0
35 37 0
36 36 0
36 37 0
34 34 0
34 35 0
35 34 0
35 35 0
35 34 0
35 35 0
36 34 0
36 35 0
34 35 0
34 36 0
35 35 0
35 36 0
35 35 0
35 36 0
36 35 0
36 36 0
34 32 0
34 33 0
36 32 0
36 33 0
34 33 0
34 34 0
36 33 0
36 34 0
32 40 0
32 41 0
33 40 0
33 41 0
33 40 0
33 41 0
34 40 0
34 41 0
32 38 0
32 39 0
33 38 0
33 39 0
32 39 0
32 40 0
33 39 0
33 40 0
33 39 0
33 40 0
34 39 0
34 40 0
33 38 0
33 39 0
34 38 0
34 39 0
32 36 0
32 37 0
33 36 0
33 37 0
33 36 0
33 37 0
34 36 0
34 37 0
32 37 0
32 38 0
33 37 0
33 38 0
33 37 0
33 38 0
34 37 0
34 38 0
32 34 0
32 35 0
34 34 0
34 35 0
32 35 0
32 36 0
34 35 0
34 36 0
30 40 0
30 41 0
31 40 0
31 41 0
31 40 0
31 41 0
32 40 0
32 41 0
30 38 0
30 39 0
31 38 0
31 39 0
30 39 0
30 40 0
31 39 0
31 40 0
31 39 0
31 40 0
32 39 0
32 40 0
31 38 0
31 39 0
32 38 0
32 39 0
30 36 0
30 37 0
31 36 0
31 37 0
31 36 0
31 37 0
32 36 0
32 37 0
30 37 0
30 38 0
31 37 0
31 38 0
31 37 0
31 38 0
32 37 0
32 38 0
28 38 0
28 39 0
29 38 0
29 39 0
28 39 0
28 40 0
29 39 0
29 40 0
29 39 0
29 40 0
30 39 0
30 40 0
29 38 0
29 39 0
30 38 0
30 39 0
28 36 0
28 37 0
29 36 0
29 37 0
29 36 0
29 37 0
30 36 0
30 37 0
28 37 0
28 38 0
29 37 0
29 38 0
29 37 0
29 38 0
30 37 0
30 38 0
26 38 0
26 39 0
27 38 0
27 39 0
27 38 0
27 39 0
28 38 0
28 39 0
26 36 0
26 37 0
27 36 0
27 37 0
27 36 0
27 37 0
28 36 0
28 37 0
26 37 0
26 38 0
27 37 0
27 38 0
27 37 0
27 38 0
28 37 0
28 38 0
24 36 0
24 37 0
25 36 0
25 37 0
25 36 0
25 37 0
26 36 0
26 37 0
24 37 0
24 38 0
25 37 0
25 38 0
20 46 0
20 48 0
22 46 0
22 48 0
20 48 0
20 50 0
22 48 0
22 50 0
20 50 0
20 52 0
22 50 0
22 52 0
20 52 0
20 54 0
22 52 0
22 54 0
20 54 0
20 56.1667 0
22 54 0
22 56.1667 0
20 56.1667 0
20 60 0
22 56.1667 0
22 60 0
22 46 0
22 48 0
24 46 0
24 48 0
22 48 0
22 50 0
24 48 0
24 50 0
22 50 0
22 52 0
24 50 0
24 52 0
22 52 0
22 54 0
24 52 0
24 54 0
22 54 0
22 56.1667 0
24 54 0
24 56.1667 0
22 56.1667 0
22 60 0
24 56.1667 0
24 60 0
24 46 0
24 48 0
26 46 0
26 48 0
24 48 0
24 50 0
26 48 0
26 50 0
24 50 0
24 52 0
26 50 0
26 52 0
24 52 0
24 54 0
26 52 0
26 54 0
24 54 0
24 56.1667 0
26 54 0
26 56.1667 0
24 56.1667 0
24 60 0
26 56.1667 0
26 60 0
26 46 0
26 48 0
28 46 0
28 48 0
26 48 0
26 50 0
28 48 0
28 50 0
26 50 0
26 52 0
28 50 0
28 52 0
26 52 0
26 54 0
28 52 0
28 54 0
26 54 0
26 56.1667 0
28 54 0
28 56.1667 0
26 56.1667 0
26 60 0
28 56.1667 0
28 60 0
28 46 0
28 47 0
30 46 0
30 47 0
28 47 0
28 48 0
30 47 0
30 48 0
28 48 0
28 50 0
30 48 0
30 50 0
28 50 0
28 52 0
30 50 0
30 52 0
28 52 0
28 54 0
30 52 0
30 54 0
28 54 0
28 56.1667 0
30 54 0
30 56.1667 0
28 56.1667 0
28 60 0
30 56.1667 0
30 60 0
30 46 0
30 47 0
32 46 0
32 47 0
30 47 0
30 48 0
32 47 0
32 48 0
30 48 0
30 50 0
32 48 0
32 50 0
30 50 0
30 52 0
32 50 0
32 52 0
30 52 0
30 54 0
32 52 0
32 54 0
30 54 0
30 56.1667 0
32 54 0
32 56.1667 0
30 56.1667 0
30 60 0
32 56.1667 0
32 60 0
32 48 0
32 50 0
34 48 0
34 50 0
32 50 0
32 52 0
34 50 0
34 52 0
32 52 0
32 54 0
34 52 0
34 54 0
32 54 0
32 56.1667 0
34 54 0
34 56.1667 0
32 56.1667 0
32 60 0
34 56.1667 0
34 60 0
32 46 0
32 47 0
34 46 0
34 47 0
32 47 0
32 48 0
34 47 0
34 48 0
32 44 0
32 45 0
33 44 0
33 45 0
33 44 0
33 45 0
34 44 0
34 45 0
32 45 0
32 46 0
33 45 0
33 46 0
33 45 0
33 46 0
34 45 0
34 46 0
32 42 0
32 43 0
33 42 0
33 43 0
32 43 0
32 44 0
33 43 0
33 44 0
33 43 0
33 44 0
34 43 0
34 44 0
32 41 0
32 42 0
33 41 0
33 42 0
30 44 0
30 45 0
31 44 0
31 45 0
31 44 0
31 45 0
32 44 0
32 45 0
30 45 0
30 46 0
31 45 0
31 46 0
31 45 0
31 46 0
32 45 0
32 46 0
30 42 0
30 43 0
31 42 0
31 43 0
30 43 0
30 44 0
31 43 0
31 44 0
31 43 0
31 44 0
32 43 0
32 44 0
31 42 0
31 43 0
32 42 0
32 43 0
30 41 0
30 42 0
31 41 0
31 42 0
31 41 0
31 42 0
32 41 0
32 42 0
28 44 0
28 45 0
29 44 0
29 45 0
29 44 0
29 45 0
30 44 0
30 45 0
28 45 0
28 46 0
29 45 0
29 46 0
29 45 0
29 46 0
30 45 0
30 46 0
28 42 0
28 43 0
29 42 0
29 43 0
28 43 0
28 44 0
29 43 0
29 44 0
29 43 0
29 44 0
30 43 0
30 44 0
29 42 0
29 43 0
30 42 0
30 43 0
28 40 0
28 41 0
29 40 0
29 41 0
28 41 0
28 42 0
29 41 0
29 42 0
29 41 0
29 42 0
30 41 0
30 42 0
29 40 0
29 41 0
30 40 0
30 41 0
26 44 0
26 45 0
27 44 0
27 45 0
27 44 0
27 45 0
28 44 0
28 45 0
26 45 0
26 46 0
27 45 0
27 46 0
27 45 0
27 46 0
28 45 0
28 46 0
26 42 0
26 43 0
27 42 0
27 43 0
26 43 0
26 44 0
27 43 0
27 44 0
27 43 0
27 44 0
28 43 0
28 44 0
27 42 0
27 43 0
28 42 0
28 43 0
26 40 0
26 41 0
27 40 0
27 41 0
26 41 0
26 42 0
27 41 0
27 42 0
27 41 0
27 42 0
28 41 0
28 42 0
27 40 0
27 41 0
28 40 0
28 41 0
26 39 0
26 40 0
27 39 0
27 40 0
27 39 0
27 40 0
28 39 0
28 40 0
24 44 0
24 45 0
25 44 0
25 45 0
25 44 0
25 45 0
26 44 0
26 45 0
24 45 0
24 46 0
25 45 0
25 46 0
25 45 0
25 46 0
26 45 0
26 46 0
24 42 0
24 43 0
25 42 0
25 43 0
24 43 0
24 44 0
25 43 0
25 44 0
25 43 0
25 44 0
26 43 0
26 44 0
25 42 0
25 43 0
26 42 0
26 43 0
24 40 0
24 41 0
25 40 0
25 41 0
24 41 0
24 42 0
25 41 0
25 42 0
25 41 0
25 42 0
26 41 0
26 42 0
25 40 0
25 41 0
26 40 0
26 41 0
24 38 0
24 39 0
25 38 0
25 39 0
24 39 0
24 40 0
25 39 0
25 40 0
25 39 0
25 40 0
26 39 0
26 40 0
25 38 0
25 39 0
26 38 0
26 39 0
22 44 0
22 45 0
23 44 0
23 45 0
23 44 0
23 45 0
24 44 0
24 45 0
22 45 0
22 46 0
23 45 0
23 46 0
23 45 0
23 46 0
24 45 0
24 46 0
22 42 0
22 43 0
23 42 0
23 43 0
22 43 0
22 44 0
23 43 0
23 44 0
23 43 0
23 44 0
24 43 0
24 44 0
23 42 0
23 43 0
24 42 0
24 43 0
22 40 0
22 41 0
23 40 0
23 41 0
22 41 0
22 42 0
23 41 0
23 42 0
23 41 0
23 42 0
24 41 0
24 42 0
23 40 0
23 41 0
24 40 0
24 41 0
22 39 0
22 40 0
23 39 0
23 40 0
23 39 0
23 40 0
24 39 0
24 40 0
20 44 0
20 45 0
21 44 0
21 45 0
21 44 0
21 45 0
22 44 0
22 45 0
20 45 0
20 46 0
21 45 0
21 46 0
21 45 0
21 46 0
22 45 0
22 46 0
20 42 0
20 43 0
21 42 0
21 43 0
20 43 0
20 44 0
21 43 0
21 44 0
21 43 0
21 44 0
22 43 0
22 44 0
21 42 0
21 43 0
22 42 0
22 43 0
20 41 0
20 42 0
21 41 0
21 42 0
21 41 0
21 42 0
22 41 0
22 42 0
21 40 0
21 41 0
22 40 0
22 41 0
44 40 0
44 41 0
46 40 0
46 41 0
44 41 0
44 42 0
46 41 0
46 42 0
46 32 0
46 33 0
48 32 0
48 33 0
46 33 0
46 34 0
48 33 0
48 34 0
46 34 0
46 35 0
48 34 0
48 35 0
46 35 0
46 36 0
48 35 0
48 36 0
46 36 0
46 37 0
48 36 0
48 37 0
46 37 0
46 38 0
48 37 0
48 38 0
46 38 0
46 39 0
48 38 0
48 39 0
46 39 0
46 40 0
48 39 0
48 40 0
46 40 0
46 42 0
48 40 0
48 42 0
46 42 0
46 44 0
48 42 0
48 44 0
48 28 0
48 29 0
50 28 0
50 29 0
48 29 0
48 30 0
50 29 0
50 30 0
48 30 0
48 31 0
50 30 0
50 31 0
48 31 0
48 32 0
50 31 0
50 32 0
48 32 0
48 33 0
50 32 0
50 33 0
48 33 0
48 34 0
50 33 0
50 34 0
48 34 0
48 35 0
50 34 0
50 35 0
48 35 0
48 36 0
50 35 0
50 36 0
48 36 0
48 37 0
50 36 0
50 37 0
48 37 0
48 38 0
50 37 0
50 38 0
48 38 0
48 39 0
50 38 0
50 39 0
48 39 0
48 40 0
50 39 0
50 40 0
48 40 0
48 42 0
50 40 0
50 42 0
48 42 0
48 44 0
50 42 0
50 44 0
50 28 0
50 29 0
52 28 0
52 29 0
50 29 0
50 30 0
52 29 0
52 30 0
50 30 0
50 31 0
52 30 0
52 31 0
50 31 0
50 32 0
52 31 0
52 32 0
50 32 0
50 34 0
52 32 0
52 34 0
50 34 0
50 36 0
52 34 0
52 36 0
50 36 0
50 38 0
52 36 0
52 38 0
50 38 0
50 40 0
52 38 0
52 40 0
50 40 0
50 42 0
52 40 0
52 42 0
50 42 0
50 44 0
52 42 0
52 44 0
52 28 0
52 30 0
54 28 0
54 30 0
52 30 0
[...]
POINT_DATA 8588
SCALARS phi float 1
LOOKUP_TABLE default
1.00024
0.998421
1.00039
1.00153
0.998421
1.00206
1.00153
0.998754
1.00206
0.999136
0.998754
0.995849
0.999136
0.999437
0.995849
0.999151
1.00047
1.00039
0.998595
1.00012
1.00039
1.00153
1.00012
0.995488
1.00153
0.998754
0.995488
1.00532
0.998754
0.995849
1.00532
0.998235
0.995849
0.999151
0.998235
1.0006
0.999544
0.998596
1.00104
1.0022
0.998595
1.00012
1.0022
1.00051
1.00012
0.995488
1.00051
1.00632
0.995488
1.00532
1.00632
0.991429
1.00532
0.998235
0.991429
0.977609
0.998235
0.997707
0.977609
0.980543
0.997707
1.0006
0.980543
0.990207
1.00104
1.0022
0.998534
0.995853
1.0022
1.00051
0.995853
0.999345
1.00051
1.00632
0.999345
0.981468
1.00632
0.991429
0.981468
1.01786
0.991429
0.982116
1.01786
1.02563
0.982116
0.977609
1.02563
1.02455
0.977609
0.980543
1.02455
0.997588
0.980543
0.990207
0.997588
0.993572
0.998534
0.996254
1.00499
1.00783
0.996254
0.995853
1.00783
1.00848
0.995853
1.00004
1.00848
1.00259
1.00004
0.999345
1.00259
1.00265
0.999345
0.987274
1.00265
1.01717
0.987274
0.981468
1.01717
1.02783
0.981468
0.997413
1.02783
1.01537
0.997413
1.01786
1.01537
0.987521
1.01786
1.02563
0.987521
0.961724
1.02563
1.02455
0.961724
0.974653
1.00499
1.00783
0.993036
0.991575
1.00783
1.00848
0.991575
0.991172
1.00848
1.00259
0.991172
0.994121
1.00259
1.00265
0.994121
0.99305
1.00265
1.01717
0.99305
0.985706
1.01717
1.02783
0.985706
0.980815
1.02783
1.01537
0.980815
0.990138
1.01537
0.987521
0.990138
1.00772
0.00366667
0.0191355
-0.00351442
-0.0182548
0.0191355
0.0402013
-0.0182548
-0.0323695
0.00553572
0.00366667
-0.000510427
-0.00351442
0.0100554
0.0277123
0.0337789
-0.00949727
0.0277123
-0.00196682
-0.00949727
0.00329468
0.564218
0.255754
0.0174147
-0.0208315
0.255754
0.0100554
-0.0208315
0.0337789
-0.0208315
0.0337789
0.0234077
-0.0243238
0.0174147
-0.0208315
0.0402013
0.0234077
0.793433
0.740947
0.141835
0.0958393
0.740947
0.564218
0.0958393
0.0174147
0.0958393
0.0174147
0.0191355
0.0402013
0.141835
0.0958393
0.00366667
0.0191355
0.761534
0.776806
0.183299
0.15079
0.776806
0.793433
0.15079
0.141835
0.15079
0.141835
0.00553572
0.00366667
0.183299
0.15079
0.00523745
0.00553572
0.759273
0.755167
0.181264
0.178224
0.755167
0.761534
0.178224
0.183299
0.178224
0.183299
0.00641465
0.00523745
0.024593
0.0124578
0.0057487
-0.00167509
0.0124578
-0.00450428
-0.00167509
0.00144857
0.18539
0.112563
0.0216343
-0.000159919
0.112563
0.024593
-0.000159918
0.0057487
-0.000159918
0.0057487
0.000671395
-0.00154641
0.0216343
-0.000159919
-0.00196682
0.000671394
0.937788
0.636187
0.575766
0.115604
0.636187
0.18539
0.115604
0.0216343
0.115604
0.0216343
0.0277123
-0.00196682
0.575766
0.115604
0.0100554
0.0277123
1.00772
1.00416
0.923716
0.740636
0.923716
0.740636
0.564218
0.255754
1.00416
0.937788
0.740636
0.575766
0.740636
0.575766
0.255754
0.0100554
0.980815
0.990138
0.793433
0.740947
0.990138
1.00772
0.740947
0.564218
0.99305
0.985706
0.761534
0.776806
0.985706
0.980815
0.776806
0.793433
0.991172
0.994121
0.759273
0.755167
0.994121
0.99305
0.755167
0.761534
0.993036
0.991575
0.759128
0.758931
0.991575
0.991172
0.758931
0.759273
0.00487244
-0.00312887
0.000425263
0.000398255
0.273885
0.0295927
0.131687
0.0170629
0.0295927
0.00487244
0.0170629
0.000425263
0.0170629
0.000425263
0.0124578
-0.00450428
0.131687
0.0170629
0.024593
0.0124578
0.900321
0.662698
0.677195
0.423098
0.662698
0.273885
0.423098
0.131687
0.423098
0.131687
0.112563
0.024593
0.677195
0.423098
0.18539
0.112563
0.974653
0.991278
1.00469
0.964738
1.00469
0.964738
0.937788
0.636187
0.991278
0.900321
0.964738
0.677195
0.964738
0.677195
0.636187
0.18539
0.987521
0.961724
1.00772
1.00416
0.961724
0.974653
1.00416
0.937788
0.0414711
0.00786215
0.0112251
-0.000883931
0.0112251
-0.000883931
0.00487244
-0.00312887
0.437091
0.232934
0.315127
0.0430341
0.232934
0.0414711
0.0430341
0.0112251
0.0430341
0.0112251
0.0295927
0.00487244
0.315127
0.0430341
0.273885
0.0295927
0.993572
0.922822
0.971891
0.819002
0.971891
0.819002
0.900321
0.662698
0.922822
0.437091
0.819002
0.315127
0.819002
0.315127
0.662698
0.273885
1.02455
0.997588
0.974653
0.991278
0.997588
0.993572
0.991278
0.900321
0.393263
0.0313526
0.228539
0.015775
0.228539
0.015775
0.0414711
0.00786215
0.972456
0.822885
0.763395
0.55448
0.822885
0.393263
0.55448
0.228539
0.55448
0.228539
0.232934
0.0414711
0.763395
0.55448
0.437091
0.232934
0.990207
1.0034
0.993658
0.992367
0.993658
0.992367
0.993572
0.922822
1.0034
0.972456
0.992367
0.763395
0.992367
0.763395
0.922822
0.437091
0.994274
0.782738
0.975887
0.890217
0.782738
0.0806039
0.890217
0.235398
0.890217
0.235398
0.822885
0.393263
0.975887
0.890217
0.972456
0.822885
1.0006
1.0033
0.994458
0.990723
0.994458
0.990723
0.990207
1.0034
1.0033
0.994274
0.990723
0.975887
0.990723
0.975887
1.0034
0.972456
0.994151
0.713156
0.975423
0.605432
0.975423
0.605432
0.994274
0.782738
0.999151
0.984804
1.00118
0.999496
1.00118
0.999496
1.0006
1.0033
0.984804
0.994151
0.999496
0.975423
0.999496
0.975423
1.0033
0.994274
0.999437
0.991482
0.998828
0.986387
0.998828
0.986387
0.999151
0.984804
0.991482
0.96414
0.986387
0.9854
0.0051033
0.00187895
0.00033065
0.000182289
0.00187895
9.56299e-05
0.000182289
-9.43965e-05
9.56299e-05
4.32598e-05
-9.43965e-05
4.4613e-05
4.32598e-05
-1.74996e-05
4.4613e-05
-1.11481e-05
-1.74996e-05
2.56738e-06
-1.11481e-05
-1.0814e-05
2.56738e-06
7.20333e-06
-1.0814e-05
-5.87711e-07
0.00033065
0.000182289
0.003423
0.00133487
0.000182289
-9.43965e-05
0.00133487
-2.44117e-05
-9.43965e-05
4.4613e-05
-2.44117e-05
6.91623e-05
4.4613e-05
-1.11481e-05
6.91623e-05
-2.33944e-05
-1.11481e-05
-1.0814e-05
-2.33944e-05
-5.31623e-06
-1.0814e-05
-5.87711e-07
-5.31623e-06
5.95819e-06
0.003423
0.00133487
0.00567233
0.00206725
0.00133487
-2.44117e-05
0.00206725
0.000136377
-2.44116e-05
6.91623e-05
0.000136377
3.03178e-05
6.91623e-05
-2.33944e-05
3.03178e-05
-7.42543e-06
-2.33943e-05
-5.31623e-06
-7.42543e-06
-6.72668e-06
-5.31623e-06
5.95819e-06
-6.72668e-06
-1.5897e-07
0.00567233
0.00206725
0.00654138
0.00253814
0.00206725
0.000136377
0.00253814
-1.7505e-05
0.000136377
3.03178e-05
-1.7505e-05
0.000119646
3.03178e-05
-7.42543e-06
0.000119646
-3.65728e-05
-7.42543e-06
-6.72668e-06
-3.65728e-05
-1.33389e-05
-6.72668e-06
-1.5897e-07
-1.33389e-05
7.38659e-06
0.00654138
0.004211
0.00382777
0.00362045
0.004211
0.00253814
0.00362045
0.00114692
0.00253814
-1.75049e-05
0.00114692
0.000351743
-1.75049e-05
0.000119646
0.000351743
-0.000116542
0.000119646
-3.65728e-05
-0.000116542
7.22126e-05
-3.65728e-05
-1.33389e-05
7.22126e-05
-3.67456e-05
-1.33389e-05
7.38659e-06
-3.67456e-05
-3.92465e-05
0.00382777
0.00362045
0.00118146
9.90082e-05
0.00362045
0.00114692
9.90082e-05
0.000393704
0.00114692
0.000351743
0.000393704
-8.85088e-05
0.000351743
-0.000116542
-8.85088e-05
7.37961e-05
-0.000116542
7.22126e-05
7.37961e-05
-4.39538e-05
7.22126e-05
-3.67456e-05
-4.39538e-05
2.47706e-05
-3.67456e-05
-3.92465e-05
2.47706e-05
2.56178e-05
0.000393704
-8.85088e-05
-3.22486e-05
2.72288e-05
-8.85088e-05
7.37961e-05
2.72288e-05
-1.05285e-05
7.37961e-05
-4.39538e-05
-1.05285e-05
1.0805e-05
-4.39538e-05
2.47706e-05
1.0805e-05
-1.09051e-05
2.47706e-05
2.56178e-05
-1.09051e-05
-8.24015e-06
0.00118146
9.90082e-05
-0.000253184
-6.5645e-06
9.90082e-05
0.000393704
-6.56451e-06
-3.22486e-05
-0.000554023
0.000140553
0.000258385
0.000105091
0.000258385
0.000105091
0.000475736
-0.000549265
0.000140553
0.00118146
0.000105091
0.000242914
0.000105091
0.000242914
-0.000549265
-0.000253184
-0.00241063
0.00177095
0.00105883
-0.000588194
0.00177095
-0.000554023
-0.000588194
0.000258385
-0.000588194
0.000258385
-0.000819772
0.000475736
0.00786215
-0.00241063
-0.000883931
0.00105883
0.00352106
0.00130151
0.00186869
0.000304912
0.00186869
0.000304912
-0.000554023
0.000140553
0.00130151
0.00382777
0.000304912
0.00236919
0.000304912
0.00236919
0.000140553
0.00118146
0.0115162
-0.00771581
0.00765308
-0.00362151
-0.00771581
0.00352106
-0.00362151
0.00186869
-0.00362151
0.00186869
0.00177095
-0.000554023
0.00765308
-0.00362151
-0.00241063
0.00177095
0.0313526
0.0115162
0.015775
0.00765308
0.015775
0.00765308
0.00786215
-0.00241063
-0.00424032
0.00474384
-0.00101973
0.00273021
-0.00101973
0.00273021
0.00352106
0.00130151
0.00474384
0.00654138
0.00273021
0.00546788
0.00273021
0.00546788
0.00130151
0.00382777
-0.0184477
0.0104285
-0.00423352
0.00443137
0.0104285
-0.00424032
0.00443137
-0.00101973
0.00443137
-0.00101973
-0.00771581
0.00352106
-0.00423352
0.00443137
0.0115162
-0.00771581
0.0806039
0.0268289
0.235398
0.0170229
0.0268289
-0.0184477
0.0170229
-0.00423352
0.0170229
-0.00423352
0.0313526
0.0115162
0.235398
0.0170229
0.393263
0.0313526
-0.00224748
0.00333523
-0.0023632
0.00547389
-0.0023632
0.00547389
-0.00424032
0.00474384
0.00333523
0.00567233
0.00547388
0.00642732
0.00547388
0.00642732
0.00474384
0.00654138
-0.0121917
0.00552928
-0.00987715
0.00432083
0.00552928
-0.00224748
0.00432083
-0.0023632
0.00432083
-0.0023632
0.0104285
-0.00424032
-0.00987715
0.00432083
-0.0184477
0.0104285
0.0717215
0.0215185
0.0429958
0.0195852
0.0215185
-0.0121917
0.0195852
-0.00987716
0.0195851
-0.00987716
0.0268289
-0.0184477
0.0429958
0.0195852
0.0806039
0.0268289
0.713156
0.0717215
0.605432
0.0429958
0.605432
0.0429958
0.782738
0.0806039
-0.00191482
0.00277287
-0.00193819
0.0030569
-0.00193819
0.0030569
-0.00224748
0.00333523
0.00277287
0.003423
0.0030569
0.00484359
0.0030569
0.00484359
0.00333523
0.00567233
-0.00833785
0.00402998
-0.0101798
0.00447649
0.00402998
-0.00191482
0.00447649
-0.00193819
0.00447649
-0.00193819
0.00552928
-0.00224748
-0.0101798
0.00447649
-0.0121917
0.00552928
0.0323187
0.0154622
0.0593627
0.0192433
0.0154622
-0.00833785
0.0192433
-0.0101798
0.0192433
-0.0101798
0.0215185
-0.0121917
0.0593627
0.0192433
0.0717215
0.0215185
0.96414
0.520928
0.9854
0.657257
0.520928
0.0323187
0.657257
0.0593627
0.657257
0.0593626
0.713156
0.0717215
0.9854
0.657257
0.994152
0.713156
-0.000894972
0.000304677
-0.00122068
0.00129317
-0.00122068
0.00129317
-0.00191482
0.00277287
0.000304677
0.00033065
0.00129317
0.00120641
0.00129317
0.00120641
0.00277287
0.003423
-0.00438189
0.00207611
-0.00492871
0.00243421
0.00207611
-0.000894972
0.00243421
-0.00122068
0.00243421
-0.00122068
0.00402998
-0.00191482
-0.00492871
0.00243421
-0.00833785
0.00402998
0.0182903
0.00837366
0.0142567
0.00959258
0.00837366
-0.00438189
0.00959258
-0.00492871
0.00959258
-0.00492871
0.0154622
-0.00833785
0.0142567
0.00959258
0.0323187
0.0154622
0.379314
0.0182903
0.387778
0.0142567
0.387778
0.0142567
0.520928
0.0323187
-0.00177627
0.00381119
-0.00140443
0.00180532
-0.00140443
0.00180532
-0.000894972
0.000304677
0.00381119
0.0051033
0.00180532
0.00246948
0.00180532
0.00246948
0.000304677
0.00033065
-0.00842254
0.00367769
-0.00591352
0.00293242
0.00367769
-0.00177627
0.00293242
-0.00140443
0.00293242
-0.00140443
0.00207611
-0.000894972
-0.00591352
0.00293242
-0.00438189
0.00207611
0.0174335
-0.00842254
0.0113771
-0.00591352
0.0113771
-0.00591352
0.00837366
-0.00438189
0.0219436
0.0113771
0.0182903
0.00837366
-3.46259e-05
-0.000102596
-2.24183e-05
-3.97096e-05
-0.000102596
5.7213e-06
-3.97096e-05
-1.55899e-05
-0.00107059
-0.000612185
0.000573174
0.000169234
-0.000612185
0.000410395
0.000169234
-0.00018695
0.000410395
9.8423e-05
-0.00018695
-0.000465811
9.8423e-05
-5.75478e-05
-0.000465811
0.000229035
-5.75477e-05
-8.33219e-05
0.000229035
0.00016639
-8.33219e-05
9.93474e-05
0.00016639
-9.46971e-05
9.93475e-05
6.77789e-05
-9.46972e-05
-7.32938e-05
6.77789e-05
-2.24183e-05
-7.32938e-05
6.71727e-05
-2.24183e-05
-1.55899e-05
6.71727e-05
-3.04318e-05
-1.55899e-05
6.69048e-06
-3.04318e-05
2.1178e-05
0.000100515
9.27422e-07
-4.75784e-05
7.26778e-05
9.27422e-07
-0.000235317
7.26778e-05
-1.13929e-05
-0.000235317
-0.000217656
-1.13929e-05
-0.000466841
-0.000217656
0.000573174
-0.000466841
-0.000510008
0.000573174
0.000169234
-0.000510008
-0.000146824
0.000169234
-0.000186949
-0.000146824
0.000181125
-0.000186949
-0.000465811
0.000181125
0.000135714
-0.000465811
0.000229035
0.000135714
-3.50427e-05
0.000229035
0.00016639
-3.50427e-05
-3.56034e-05
0.00016639
-9.46972e-05
-3.56034e-05
3.34942e-05
-9.46972e-05
-7.32938e-05
3.34942e-05
2.25659e-05
-7.32938e-05
6.71727e-05
2.25659e-05
-1.85889e-05
6.71727e-05
-3.04318e-05
-1.85889e-05
4.81174e-06
-3.04318e-05
2.1178e-05
4.81174e-06
-5.16826e-06
-4.75784e-05
7.26778e-05
1.79547e-05
-1.76564e-05
7.26778e-05
-1.13929e-05
-1.76564e-05
1.15895e-05
-1.13929e-05
-0.000466841
1.15895e-05
0.000168966
-0.000466841
-0.000510008
0.000168966
0.000250576
-0.000510008
0.000181125
0.000250576
-0.000100019
0.000181125
-3.50427e-05
-0.000100019
2.78257e-05
-3.50427e-05
3.34942e-05
2.78257e-05
-1.90248e-05
3.34942e-05
-1.85889e-05
-1.90248e-05
1.06921e-05
-1.85889e-05
4.81174e-06
1.06921e-05
-3.35534e-06
4.81174e-06
-5.16826e-06
-3.35534e-06
2.91154e-06
1.79547e-05
1.15895e-05
-1.00304e-05
5.7013e-06
1.15895e-05
0.000250576
5.7013e-06
-0.000119542
0.000250576
-0.000100019
-0.000119542
3.98408e-05
-0.000100019
2.78257e-05
3.98408e-05
-1.34437e-05
2.78257e-05
-1.90248e-05
-1.34437e-05
7.38209e-06
-1.90248e-05
1.06921e-05
7.38209e-06
-4.12458e-06
1.06921e-05
-3.35534e-06
-4.12458e-06
1.56576e-06
-3.35533e-06
2.91154e-06
1.56576e-06
-1.18287e-06
-1.00304e-05
5.7013e-06
5.374e-06
-1.9711e-05
5.70131e-06
-0.000119542
-1.9711e-05
3.28585e-05
-0.000119542
3.98408e-05
3.28585e-05
3.16012e-06
3.98408e-05
-1.34437e-05
3.16011e-06
4.23701e-06
-1.34437e-05
7.38209e-06
4.23701e-06
6.70013e-07
7.38209e-06
-4.12458e-06
6.70014e-07
-4.49088e-07
-4.12458e-06
1.56576e-06
-4.49088e-07
-4.12005e-07
1.56576e-06
-1.18287e-06
-4.12005e-07
1.60673e-08
5.374e-06
-1.9711e-05
5.6054e-06
-1.00898e-05
-1.9711e-05
3.28585e-05
-1.00898e-05
5.44862e-05
3.28585e-05
3.16011e-06
5.44862e-05
-1.17947e-05
3.16011e-06
4.23702e-06
-1.17947e-05
6.3294e-06
4.23702e-06
6.70013e-07
6.3294e-06
-2.1277e-06
6.70012e-07
-4.49088e-07
-2.1277e-06
1.17811e-06
-4.49088e-07
-4.12005e-07
1.17811e-06
-6.91351e-07
-4.12005e-07
1.60674e-08
-6.91351e-07
4.048e-07
-0.000174801
-0.000970734
-0.000235317
-0.000217655
-0.000970734
-0.00107059
-0.000217655
0.000573174
-4.10628e-05
-4.04898e-05
0.000100515
9.27418e-07
-4.04898e-05
-0.000174801
9.27415e-07
-0.000235317
-7.20663e-05
-3.86275e-05
9.93474e-05
6.77789e-05
-3.86275e-05
-3.46259e-05
6.77789e-05
-2.24183e-05
0.000127261
8.21378e-05
-5.75477e-05
-8.33219e-05
8.21378e-05
-7.20663e-05
-8.33219e-05
9.93474e-05
0.000632384
-0.000238651
0.000410395
9.84231e-05
-0.000238651
0.000127261
9.84231e-05
-5.75477e-05
-0.000756458
-0.000174255
-0.00107059
-0.000612185
-0.000174255
0.000632384
-0.000612185
0.000410395
0.000945961
0.000568787
0.00147494
0.00210188
0.00147494
0.00210188
-0.000174801
-0.000970735
0.000568788
-0.000756458
0.00210188
0.00273206
0.00210188
0.00273206
-0.000970735
-0.00107059
1.68674e-05
0.000945961
-1.48399e-05
0.00147494
-1.48399e-05
0.00147494
-4.04898e-05
-0.000174801
-3.43168e-05
0.000254618
-0.000186539
-5.017e-05
-0.000186539
-5.017e-05
-7.20663e-05
-3.86275e-05
0.000254618
-1.29413e-05
-5.017e-05
2.73554e-06
-5.017e-05
2.73554e-06
-3.86275e-05
-3.46259e-05
-0.000435871
0.000380992
0.000213068
0.000268712
0.000380992
-3.43168e-05
0.000268713
-0.000186539
0.000268712
-0.000186539
8.21378e-05
-7.20663e-05
0.000213068
0.000268713
0.000127261
8.21378e-05
-0.00796411
0.00201104
0.00285451
-0.000663125
0.00201104
-0.000435871
-0.000663125
0.000213068
-0.000663125
0.000213068
-0.000238651
0.000127261
0.00285451
-0.000663125
0.000632384
-0.000238651
0.0134189
0.00613525
-0.00471426
-0.00228722
0.00613525
-0.00796411
-0.00228722
0.00285451
-0.00228722
0.00285451
-0.000174255
0.000632384
-0.00471426
-0.00228722
-0.000756458
-0.000174255
0.00104423
0.0066982
-7.34083e-05
-0.00225075
0.0066982
0.0134189
-0.00225075
-0.00471426
-0.00225075
-0.00471426
0.000568787
-0.000756458
-7.34082e-05
-0.00225075
0.000945961
0.000568787
0.000469354
0.00104423
-0.000208133
-7.34083e-05
-0.000208133
-7.34083e-05
1.68674e-05
0.000945961
-0.000580649
-0.00025527
0.000544812
0.0011016
0.000544812
0.0011016
-3.43168e-05
0.000254618
-0.00025527
0.00042547
0.0011016
-4.84568e-05
0.0011016
-4.84568e-05
0.000254618
-1.29413e-05
-0.00196007
0.000407948
0.00161241
-0.000495737
0.000407948
-0.000580649
-0.000495737
0.000544812
-0.000495737
0.000544812
0.000380992
-3.43168e-05
0.00161241
-0.000495738
-0.000435871
0.000380992
-0.0243238
0.00758073
0.0196624
-0.00489756
0.00758073
-0.00196007
-0.00489756
0.00161241
-0.00489756
0.00161241
0.00201103
-0.000435871
0.0196624
-0.00489755
-0.00796411
0.00201104
0.0402013
0.0234077
-0.0323695
-0.0132467
0.0234077
-0.0243238
-0.0132467
0.0196624
-0.0132467
0.0196624
0.00613525
-0.00796411
-0.0323695
-0.0132467
0.0134189
0.00613525
-0.0182548
-0.0323695
0.0066982
0.0134189
-0.00351442
-0.0182548
0.00104423
0.0066982
-0.000510427
-0.00351442
0.000469355
0.00104423
-0.00154641
0.00115403
0.000809978
-0.000495273
0.00115402
-0.000516692
-0.000495273
0.000804724
-0.000495273
0.000804724
-0.00025527
0.00042547
0.000809978
-0.000495273
-0.000580649
-0.00025527
-0.00196682
0.000671395
0.00329468
0.000633473
0.000671394
-0.00154641
0.000633473
0.000809978
0.000633473
0.000809978
0.000407947
-0.000580649
0.00329468
0.000633473
-0.00196007
0.000407947
-0.00949727
0.00329468
0.00758073
-0.00196007
0.0337789
-0.00949727
-0.0243238
0.00758073
0.0057487
-0.00167509
-0.00154641
0.00115402
-3.22486e-05
2.72288e-05
6.16104e-05
-2.42272e-05
2.72288e-05
-1.05285e-05
-2.42272e-05
1.59166e-05
-1.05285e-05
1.0805e-05
1.59166e-05
-8.55473e-06
1.0805e-05
-1.09051e-05
-8.55473e-06
3.92748e-06
-1.09051e-05
-8.24015e-06
3.92748e-06
4.61845e-06
6.16103e-05
-2.42272e-05
5.96538e-06
1.32624e-05
-2.42272e-05
1.59166e-05
1.32624e-05
-5.98829e-06
1.59166e-05
-8.55473e-06
-5.98829e-06
3.50356e-06
-8.55473e-06
3.92748e-06
3.50356e-06
-1.81782e-06
3.92748e-06
4.61845e-06
-1.81782e-06
-1.95085e-06
-3.15432e-07
4.20173e-05
2.05442e-05
-1.79706e-05
4.20173e-05
3.46024e-05
-1.79706e-05
-1.42836e-05
3.46024e-05
6.35235e-05
-1.42836e-05
2.20714e-05
6.35235e-05
5.96538e-06
2.20714e-05
9.49779e-07
5.96538e-06
1.32624e-05
9.49779e-07
4.13208e-06
1.32624e-05
-5.98829e-06
4.13208e-06
-2.45033e-06
-5.98829e-06
3.50356e-06
-2.45033e-06
1.21104e-06
3.50355e-06
-1.81782e-06
1.21104e-06
-2.96042e-07
-1.81782e-06
-1.95085e-06
-2.96042e-07
-5.57078e-07
2.05442e-05
-1.79706e-05
9.96616e-05
3.49998e-05
-1.79706e-05
-1.42836e-05
3.49998e-05
5.90941e-06
-1.42836e-05
2.20714e-05
5.90941e-06
-1.60457e-06
2.20714e-05
9.4978e-07
-1.60457e-06
-3.77618e-08
9.4978e-07
4.13208e-06
-3.77621e-08
3.75645e-07
4.13208e-06
-2.45033e-06
3.75645e-07
8.054e-08
-2.45033e-06
1.21104e-06
8.054e-08
1.35203e-08
1.21104e-06
-2.96042e-07
1.35202e-08
-1.30107e-07
-2.96042e-07
-5.57078e-07
-1.30107e-07
-5.94992e-08
-1.29413e-05
-0.000109495
-3.46259e-05
-0.000102596
-0.000109495
7.6977e-05
-0.000102596
5.7213e-06
7.6977e-05
0.000168409
5.7213e-06
4.32777e-05
0.000168409
9.96616e-05
4.32777e-05
3.39845e-05
9.96616e-05
5.90941e-06
3.39845e-05
-4.6517e-06
5.90941e-06
-3.77617e-08
-4.6517e-06
2.54823e-06
-3.77616e-08
3.75645e-07
2.54823e-06
-9.45452e-07
3.75645e-07
8.05399e-08
-9.45452e-07
7.18984e-07
8.05399e-08
1.35203e-08
7.18984e-07
-1.24287e-07
1.35202e-08
-1.30107e-07
-1.24287e-07
-1.90478e-07
-1.30107e-07
-5.94992e-08
-1.90478e-07
-3.6018e-08
5.7213e-06
4.32777e-05
-1.55899e-05
1.84367e-06
4.32777e-05
3.39845e-05
1.84367e-06
6.69048e-06
3.39845e-05
-4.6517e-06
6.69048e-06
-5.97528e-07
-4.6517e-06
2.54823e-06
-5.97528e-07
-4.33784e-07
2.54823e-06
-9.45452e-07
-4.33784e-07
2.38186e-06
-9.45452e-07
7.18984e-07
2.38186e-06
-6.00156e-07
7.18984e-07
-1.24287e-07
-6.00155e-07
2.42457e-07
-1.24287e-07
-1.90478e-07
2.42457e-07
2.06394e-09
-1.90478e-07
-3.6018e-08
2.06392e-09
-7.94271e-08
6.69048e-06
-5.97528e-07
2.1178e-05
-1.30048e-05
-5.97528e-07
-4.33784e-07
-1.30048e-05
5.49638e-06
-4.33784e-07
2.38186e-06
5.49638e-06
-2.17663e-06
2.38186e-06
-6.00156e-07
-2.17663e-06
1.64294e-06
-6.00156e-07
2.42457e-07
1.64294e-06
-6.10111e-07
2.42457e-07
2.06393e-09
-6.10111e-07
-4.94954e-08