# vtk DataFile Version 2.0
Hex test
ASCII
DATASET UNSTRUCTURED_GRID
POINTS 6868 float
30 -2.16667 0
30 -2.77556e-17 0
32 -2.16667 0
32 -2.77556e-17 0
32 -6 0
32 -2.16667 0
34 -6 0
34 -2.16667 0
32 -2.16667 0
32 -2.77556e-17 0
34 -2.16667 0
34 -2.77556e-17 0
32 2.77556e-17 0
32 2 0
34 2.77556e-17 0
34 2 0
32 2 0
32 4 0
34 2 0
34 4 0
34 -6 0
34 -2.16667 0
36 -6 0
36 -2.16667 0
34 -2.16667 0
34 -2.77556e-17 0
36 -2.16667 0
36 -2.77556e-17 0
34 2.77556e-17 0
34 2 0
36 2.77556e-17 0
36 2 0
34 2 0
34 4 0
36 2 0
36 4 0
36 -6 0
36 -2.16667 0
38 -6 0
38 -2.16667 0
36 -2.16667 0
36 -2.77556e-17 0
38 -2.16667 0
38 -2.77556e-17 0
36 2.77556e-17 0
36 2 0
38 2.77556e-17 0
38 2 0
36 2 0
36 4 0
38 2 0
38 4 0
38 -6 0
38 -2.16667 0
40 -6 0
40 -2.16667 0
38 -2.16667 0
38 -2.77556e-17 0
40 -2.16667 0
40 -2.77556e-17 0
38 2.77556e-17 0
38 2 0
40 2.77556e-17 0
40 2 0
38 2 0
38 4 0
40 2 0
40 4 0
40 -6 0
40 -2.16667 0
42 -6 0
42 -2.16667 0
40 -2.16667 0
40 -2.77556e-17 0
42 -2.16667 0
42 -2.77556e-17 0
40 2.77556e-17 0
40 2 0
42 2.77556e-17 0
42 2 0
40 2 0
40 4 0
42 2 0
42 4 0
40 4 0
40 5 0
42 4 0
42 5 0
40 5 0
40 6 0
42 5 0
42 6 0
42 -6 0
42 -2.16667 0
44 -6 0
44 -2.16667 0
42 -2.16667 0
42 -2.77556e-17 0
44 -2.16667 0
44 -2.77556e-17 0
42 2.77556e-17 0
42 2 0
44 2.77556e-17 0
44 2 0
42 2 0
42 4 0
44 2 0
44 4 0
42 4 0
42 5 0
44 4 0
44 5 0
42 5 0
42 6 0
44 5 0
44 6 0
44 -6 0
44 -2.16667 0
46 -6 0
46 -2.16667 0
44 -2.16667 0
44 -2.77556e-17 0
46 -2.16667 0
46 -2.77556e-17 0
44 2.77556e-17 0
44 2 0
46 2.77556e-17 0
46 2 0
44 2 0
44 4 0
46 2 0
46 4 0
44 4 0
44 6 0
46 4 0
46 6 0
46 -6 0
46 -2.16667 0
48 -6 0
48 -2.16667 0
46 -2.16667 0
46 -2.77556e-17 0
48 -2.16667 0
48 -2.77556e-17 0
46 2.77556e-17 0
46 2 0
48 2.77556e-17 0
48 2 0
46 2 0
46 4 0
48 2 0
48 4 0
48 -6 0
48 -2.16667 0
50.1667 -6 0
50.1667 -2.16667 0
48 -2.16667 0
48 -2.77556e-17 0
50.1667 -2.16667 0
50.1667 0 0
48 2.77556e-17 0
48 2 0
50.1667 0 0
50.1667 2 0
48 2 0
48 4 0
50.1667 2 0
50.1667 4 0
50.1667 -6 0
50.1667 -2.16667 0
54 -6 0
54 -2.16667 0
50.1667 -2.16667 0
50.1667 6.93889e-17 0
54 -2.16667 0
54 0 0
50.1667 -1.38778e-17 0
50.1667 2 0
54 0 0
54 2 0
50.1667 2 0
50.1667 4 0
54 2 0
54 4 0
50.1667 4 0
50.1667 6 0
54 4 0
54 6 0
40 6 0
40 7 0
42 6 0
42 7 0
40 7 0
40 8 0
42 7 0
42 8 0
38 8 0
38 9 0
39 8 0
39 9 0
39 8 0
39 9 0
40 8 0
40 9 0
38 6 0
38 7 0
39 6 0
39 7 0
39 6 0
39 7 0
40 6 0
40 7 0
38 7 0
38 8 0
39 7 0
39 8 0
39 7 0
39 8 0
40 7 0
40 8 0
38 4 0
38 5 0
40 4 0
40 5 0
38 5 0
38 6 0
40 5 0
40 6 0
36 10 0
36 11 0
37 10 0
37 11 0
36 11 0
36 12 0
37 11 0
37 12 0
36 8 0
36 9 0
37 8 0
37 9 0
36 9 0
36 10 0
37 9 0
37 10 0
37 9 0
37 10 0
38 9 0
38 10 0
37 8 0
37 9 0
38 8 0
38 9 0
36 6 0
36 7 0
37 6 0
37 7 0
36 7 0
36 8 0
37 7 0
37 8 0
37 7 0
37 8 0
38 7 0
38 8 0
37 6 0
37 7 0
38 6 0
38 7 0
36 4 0
36 5 0
37 4 0
37 5 0
37 4 0
37 5 0
38 4 0
38 5 0
36 5 0
36 6 0
37 5 0
37 6 0
37 5 0
37 6 0
38 5 0
38 6 0
35 12 0
35 13 0
36 12 0
36 13 0
34 10 0
34 11 0
35 10 0
35 11 0
35 10 0
35 11 0
36 10 0
36 11 0
34 8 0
34 9 0
35 8 0
35 9 0
34 9 0
34 10 0
35 9 0
35 10 0
35 9 0
35 10 0
36 9 0
36 10 0
35 8 0
35 9 0
36 8 0
36 9 0
34 6 0
34 7 0
35 6 0
35 7 0
34 7 0
34 8 0
35 7 0
35 8 0
35 7 0
35 8 0
36 7 0
36 8 0
35 6 0
35 7 0
36 6 0
36 7 0
34 4 0
34 5 0
35 4 0
35 5 0
35 4 0
35 5 0
36 4 0
36 5 0
34 5 0
34 6 0
35 5 0
35 6 0
35 5 0
35 6 0
36 5 0
36 6 0
32 10 0
32 11 0
33 10 0
33 11 0
33 10 0
33 11 0
34 10 0
34 11 0
32 8 0
32 9 0
33 8 0
33 9 0
32 9 0
32 10 0
33 9 0
33 10 0
33 9 0
33 10 0
34 9 0
34 10 0
33 8 0
33 9 0
34 8 0
34 9 0
32 6 0
32 7 0
33 6 0
33 7 0
32 7 0
32 8 0
33 7 0
33 8 0
33 7 0
33 8 0
34 7 0
34 8 0
33 6 0
33 7 0
34 6 0
34 7 0
32 4 0
32 5 0
33 4 0
33 5 0
33 4 0
33 5 0
34 4 0
34 5 0
32 5 0
32 6 0
33 5 0
33 6 0
33 5 0
33 6 0
34 5 0
34 6 0
31 10 0
31 11 0
32 10 0
32 11 0
31 9 0
31 10 0
32 9 0
32 10 0
31 8 0
31 9 0
32 8 0
32 9 0
31 7 0
31 8 0
32 7 0
32 8 0
42 6 0
42 7 0
44 6 0
44 7 0
42 7 0
42 8 0
44 7 0
44 8 0
44 6 0
44 7 0
46 6 0
46 7 0
44 7 0
44 8 0
46 7 0
46 8 0
44 8 0
44 9 0
46 8 0
46 9 0
44 9 0
44 10 0
46 9 0
46 10 0
46 4 0
46 6 0
48 4 0
48 6 0
46 6 0
46 8 0
48 6 0
48 8 0
46 8 0
46 9 0
48 8 0
48 9 0
46 9 0
46 10 0
48 9 0
48 10 0
46 10 0
46 11 0
48 10 0
48 11 0
46 11 0
46 12 0
48 11 0
48 12 0
48 4 0
48 6 0
50.1667 4 0
50.1667 6 0
48 6 0
48 8 0
50.1667 6 0
50.1667 8 0
48 8 0
48 10 0
50.1667 8 0
50.1667 10 0
48 10 0
48 11 0
50.1667 10 0
50.1667 11 0
48 11 0
48 12 0
50.1667 11 0
50.1667 12 0
48 12 0
48 13 0
50.1667 12 0
50.1667 13 0
48 13 0
48 14 0
50.1667 13 0
50.1667 14 0
48 14 0
48 15 0
50.1667 14 0
50.1667 15 0
48 15 0
48 16 0
50.1667 15 0
50.1667 16 0
48 16 0
48 17 0
50.1667 16 0
50.1667 17 0
48 17 0
48 18 0
50.1667 17 0
50.1667 18 0
50.1667 6 0
50.1667 8 0
54 6 0
54 8 0
50.1667 8 0
50.1667 10 0
54 8 0
54 10 0
50.1667 10 0
50.1667 12 0
54 10 0
54 12 0
50.1667 12 0
50.1667 13 0
54 12 0
54 13 0
50.1667 13 0
50.1667 14 0
54 13 0
54 14 0
50.1667 14 0
50.1667 15 0
54 14 0
54 15 0
50.1667 15 0
50.1667 16 0
54 15 0
54 16 0
50.1667 16 0
50.1667 17 0
54 16 0
54 17 0
50.1667 17 0
50.1667 18 0
54 17 0
54 18 0
46 16 0
46 17 0
48 16 0
48 17 0
46 17 0
46 18 0
48 17 0
48 18 0
46 14 0
46 15 0
48 14 0
48 15 0
46 15 0
46 16 0
48 15 0
48 16 0
46 12 0
46 13 0
48 12 0
48 13 0
46 13 0
46 14 0
48 13 0
48 14 0
44 16 0
44 17 0
45 16 0
45 17 0
44 17 0
44 18 0
45 17 0
45 18 0
45 17 0
45 18 0
46 17 0
46 18 0
45 16 0
45 17 0
46 16 0
46 17 0
44 14 0
44 15 0
45 14 0
45 15 0
44 15 0
44 16 0
45 15 0
45 16 0
45 15 0
45 16 0
46 15 0
46 16 0
45 14 0
45 15 0
46 14 0
46 15 0
44 12 0
44 13 0
45 12 0
45 13 0
45 12 0
45 13 0
46 12 0
46 13 0
44 13 0
44 14 0
45 13 0
45 14 0
45 13 0
45 14 0
46 13 0
46 14 0
44 10 0
44 11 0
46 10 0
46 11 0
44 11 0
44 12 0
46 11 0
46 12 0
42 16 0
42 17 0
43 16 0
43 17 0
42 17 0
42 18 0
43 17 0
43 18 0
43 17 0
43 18 0
44 17 0
44 18 0
43 16 0
43 17 0
44 16 0
44 17 0
42 14 0
42 15 0
43 14 0
43 15 0
42 15 0
42 16 0
43 15 0
43 16 0
43 15 0
43 16 0
44 15 0
44 16 0
43 14 0
43 15 0
44 14 0
44 15 0
42 12 0
42 13 0
43 12 0
43 13 0
42 13 0
42 14 0
43 13 0
43 14 0
43 13 0
43 14 0
44 13 0
44 14 0
43 12 0
43 13 0
44 12 0
44 13 0
42 10 0
42 11 0
43 10 0
43 11 0
43 10 0
43 11 0
44 10 0
44 11 0
42 11 0
42 12 0
43 11 0
43 12 0
43 11 0
43 12 0
44 11 0
44 12 0
42 8 0
42 9 0
44 8 0
44 9 0
42 9 0
42 10 0
44 9 0
44 10 0
40 16 0
40 17 0
41 16 0
41 17 0
40 17 0
40 18 0
41 17 0
41 18 0
41 17 0
41 18 0
42 17 0
42 18 0
41 16 0
41 17 0
42 16 0
42 17 0
40 14 0
40 15 0
41 14 0
41 15 0
40 15 0
40 16 0
41 15 0
41 16 0
41 15 0
41 16 0
42 15 0
42 16 0
41 14 0
41 15 0
42 14 0
42 15 0
40 12 0
40 13 0
41 12 0
41 13 0
40 13 0
40 14 0
41 13 0
41 14 0
41 13 0
41 14 0
42 13 0
42 14 0
41 12 0
41 13 0
42 12 0
42 13 0
40 10 0
40 11 0
41 10 0
41 11 0
40 11 0
40 12 0
41 11 0
41 12 0
41 11 0
41 12 0
42 11 0
42 12 0
41 10 0
41 11 0
42 10 0
42 11 0
40 8 0
40 9 0
41 8 0
41 9 0
41 8 0
41 9 0
42 8 0
42 9 0
40 9 0
40 10 0
41 9 0
41 10 0
41 9 0
41 10 0
42 9 0
42 10 0
39 14 0
39 15 0
40 14 0
40 15 0
38 12 0
38 13 0
39 12 0
39 13 0
38 13 0
38 14 0
39 13 0
39 14 0
39 13 0
39 14 0
40 13 0
40 14 0
39 12 0
39 13 0
40 12 0
40 13 0
38 10 0
38 11 0
39 10 0
39 11 0
38 11 0
38 12 0
39 11 0
39 12 0
39 11 0
39 12 0
40 11 0
40 12 0
39 10 0
39 11 0
40 10 0
40 11 0
38 9 0
38 10 0
39 9 0
39 10 0
39 9 0
39 10 0
40 9 0
40 10 0
37 12 0
37 13 0
38 12 0
38 13 0
37 11 0
37 12 0
38 11 0
38 12 0
37 10 0
37 11 0
38 10 0
38 11 0
24 20 0
24 22 0
26 20 0
26 22 0
26 14 0
26 16 0
28 14 0
28 16 0
26 16 0
26 18 0
28 16 0
28 18 0
26 18 0
26 20 0
28 18 0
28 20 0
26 20 0
26 22 0
28 20 0
28 22 0
26 22 0
26 24 0
28 22 0
28 24 0
26 24 0
26 26 0
28 24 0
28 26 0
28 14 0
28 15 0
30 14 0
30 15 0
28 15 0
28 16 0
30 15 0
30 16 0
28 16 0
28 18 0
30 16 0
30 18 0
28 18 0
28 20 0
30 18 0
30 20 0
28 20 0
28 22 0
30 20 0
30 22 0
28 22 0
28 24 0
30 22 0
30 24 0
28 24 0
28 26 0
30 24 0
30 26 0
30 14 0
30 15 0
32 14 0
32 15 0
30 15 0
30 16 0
32 15 0
32 16 0
30 16 0
30 17 0
32 16 0
32 17 0
30 17 0
30 18 0
32 17 0
32 18 0
30 18 0
30 20 0
32 18 0
32 20 0
30 20 0
30 22 0
32 20 0
32 22 0
30 22 0
30 24 0
32 22 0
32 24 0
30 24 0
30 26 0
32 24 0
32 26 0
32 16 0
32 17 0
34 16 0
34 17 0
32 17 0
32 18 0
34 17 0
34 18 0
32 18 0
32 19 0
34 18 0
34 19 0
32 19 0
32 20 0
34 19 0
34 20 0
32 20 0
32 21 0
34 20 0
34 21 0
32 21 0
32 22 0
34 21 0
34 22 0
32 22 0
32 23 0
34 22 0
34 23 0
32 23 0
32 24 0
34 23 0
34 24 0
32 24 0
32 25 0
34 24 0
34 25 0
32 25 0
32 26 0
34 25 0
34 26 0
32 27 0
32 28 0
34 27 0
34 28 0
34 18 0
34 19 0
36 18 0
36 19 0
34 19 0
34 20 0
36 19 0
36 20 0
34 20 0
34 21 0
36 20 0
36 21 0
34 21 0
34 22 0
36 21 0
36 22 0
34 22 0
34 23 0
36 22 0
36 23 0
34 23 0
34 24 0
36 23 0
36 24 0
34 24 0
34 25 0
36 24 0
36 25 0
34 25 0
34 26 0
36 25 0
36 26 0
34 26 0
34 27 0
36 26 0
36 27 0
34 27 0
34 28 0
36 27 0
36 28 0
38 22 0
38 23 0
39 22 0
39 23 0
38 23 0
38 24 0
39 23 0
39 24 0
38 20 0
38 21 0
39 20 0
39 21 0
38 21 0
38 22 0
39 21 0
39 22 0
39 20 0
39 21 0
40 20 0
40 21 0
38 18 0
38 19 0
39 18 0
39 19 0
38 19 0
38 20 0
39 19 0
39 20 0
39 19 0
39 20 0
40 19 0
40 20 0
39 18 0
39 19 0
40 18 0
40 19 0
38 16 0
38 17 0
39 16 0
39 17 0
38 17 0
38 18 0
39 17 0
39 18 0
39 17 0
39 18 0
40 17 0
40 18 0
39 16 0
39 17 0
40 16 0
40 17 0
38 14 0
38 15 0
39 14 0
39 15 0
38 15 0
38 16 0
39 15 0
39 16 0
39 15 0
39 16 0
40 15 0
40 16 0
36 24 0
36 25 0
38 24 0
38 25 0
36 25 0
36 26 0
38 25 0
38 26 0
36 22 0
36 23 0
38 22 0
38 23 0
36 23 0
36 24 0
38 23 0
38 24 0
36 20 0
36 21 0
38 20 0
38 21 0
36 21 0
36 22 0
38 21 0
38 22 0
36 18 0
36 19 0
38 18 0
38 19 0
36 19 0
36 20 0
38 19 0
38 20 0
36 16 0
36 17 0
37 16 0
37 17 0
37 16 0
37 17 0
38 16 0
38 17 0
36 17 0
36 18 0
37 17 0
37 18 0
37 17 0
37 18 0
38 17 0
38 18 0
36 14 0
36 15 0
37 14 0
37 15 0
36 15 0
36 16 0
37 15 0
37 16 0
37 15 0
37 16 0
38 15 0
38 16 0
37 14 0
37 15 0
38 14 0
38 15 0
36 12 0
36 13 0
37 12 0
37 13 0
36 13 0
36 14 0
37 13 0
37 14 0
37 13 0
37 14 0
38 13 0
38 14 0
34 16 0
34 17 0
36 16 0
36 17 0
34 17 0
34 18 0
36 17 0
36 18 0
34 14 0
34 15 0
35 14 0
35 15 0
35 14 0
35 15 0
36 14 0
36 15 0
34 15 0
34 16 0
35 15 0
35 16 0
35 15 0
35 16 0
36 15 0
36 16 0
34 12 0
[...]
POINT_DATA 6868
SCALARS phi float 1
LOOKUP_TABLE default
3.54385e-05
-0.00016066
0.000100449
-3.6951e-05
5.81009e-05
0.000100449
-5.44971e-06
-1.44105e-05
0.000100449
-3.6951e-05
-1.44105e-05
-2.14206e-06
-3.6951e-05
-6.56209e-05
-2.14206e-06
2.88226e-05
-6.56209e-05
0.00025923
2.88226e-05
-5.56967e-05
-5.44971e-06
-1.44105e-05
4.24633e-06
1.2393e-05
-1.44105e-05
-2.14206e-06
1.2393e-05
3.4431e-06
-2.14206e-06
2.88226e-05
3.4431e-06
-2.88251e-05
2.88226e-05
-5.56967e-05
-2.88251e-05
3.89653e-05
4.24633e-06
1.2393e-05
-1.83931e-06
-1.45484e-05
1.2393e-05
3.4431e-06
-1.45484e-05
-1.29422e-05
3.4431e-06
-2.88251e-05
-1.29422e-05
4.82148e-05
-2.88251e-05
3.89653e-05
4.82148e-05
-9.60652e-05
-1.83931e-06
-1.45484e-05
-3.07284e-07
-6.00472e-06
-1.45484e-05
-1.29422e-05
-6.00472e-06
-7.08896e-06
-1.29422e-05
4.82148e-05
-7.08896e-06
2.38412e-05
4.82148e-05
-9.60652e-05
2.38412e-05
-5.52009e-05
-3.07284e-07
-6.00472e-06
1.38464e-06
1.53237e-06
-6.00472e-06
-7.08896e-06
1.53237e-06
-1.73508e-06
-7.08896e-06
2.38412e-05
-1.73508e-06
1.73819e-06
2.38412e-05
-5.52009e-05
1.73819e-06
-1.19557e-05
-5.52009e-05
-3.92207e-05
-1.19557e-05
-6.1573e-06
-3.92207e-05
-0.000104115
-6.1573e-06
-1.93237e-05
1.38464e-06
1.53237e-06
8.1993e-07
5.7695e-08
1.53237e-06
-1.73508e-06
5.76949e-08
-2.36154e-06
-1.73508e-06
1.73819e-06
-2.36154e-06
5.672e-06
1.73819e-06
-1.19557e-05
5.672e-06
-1.23696e-05
-1.19557e-05
-6.1573e-06
-1.23696e-05
1.1881e-06
-6.1573e-06
-1.93237e-05
1.1881e-06
4.42116e-06
8.1993e-07
5.7695e-08
-1.23381e-07
4.70677e-07
5.7695e-08
-2.36154e-06
4.70677e-07
1.06455e-06
-2.36154e-06
5.672e-06
1.06455e-06
-3.09688e-06
5.672e-06
-1.23696e-05
-3.09688e-06
6.14229e-06
-1.23696e-05
4.42116e-06
6.14229e-06
-3.5283e-06
-1.23381e-07
4.70677e-07
9.6773e-08
3.20586e-08
4.70677e-07
1.06455e-06
3.20587e-08
-2.96066e-07
1.06455e-06
-3.09688e-06
-2.96066e-07
7.69076e-07
-3.09688e-06
6.14229e-06
7.69076e-07
-1.55735e-06
9.6773e-08
3.20587e-08
-2.10403e-07
-3.75419e-07
3.20586e-08
-2.96066e-07
-3.75419e-07
9.27447e-08
-2.96066e-07
7.69076e-07
9.27447e-08
1.84417e-07
7.69076e-07
-1.55735e-06
1.84417e-07
-5.80334e-07
-2.10403e-07
-3.75419e-07
-1.41628e-07
-1.84664e-07
-3.75419e-07
9.27447e-08
-1.84664e-07
1.66096e-07
9.27447e-08
1.84417e-07
1.66096e-07
-2.13533e-07
1.84417e-07
-5.80334e-07
-2.13533e-07
3.01669e-07
-5.80334e-07
-2.98347e-07
3.01669e-07
-5.62692e-08
-0.000104115
0.000224892
-1.93237e-05
6.04445e-06
0.000224892
5.90401e-05
6.04445e-06
1.49026e-05
-0.00022243
0.00071276
0.000132442
-0.000283381
0.000132442
-0.000283381
5.90401e-05
-4.72584e-06
-9.15403e-05
-2.32812e-05
-0.000157664
0.000343233
-0.000157664
0.000343233
-0.000104115
0.000224892
-2.32812e-05
-0.00022243
0.000343233
0.000132442
0.000343233
0.000132442
0.000224892
5.90401e-05
-9.60652e-05
4.62461e-05
-5.52009e-05
-3.92207e-05
4.62461e-05
-9.15403e-05
-3.92207e-05
-0.000104115
-0.00259264
0.0201533
-0.00161301
0.00598443
0.0201533
0.193744
0.00598443
0.0272334
-0.00062308
0.0030858
-0.000309792
-0.000321411
0.0030858
-0.00259264
-0.000321411
-0.00161301
-0.000321411
-0.00161301
0.00071276
-0.000338194
-0.000309792
-0.000321411
-0.00022243
0.00071276
-5.11194e-05
0.000424344
2.20229e-05
4.46666e-05
0.000424344
-0.00062308
4.46666e-05
-0.000309792
4.46666e-05
-0.000309792
-2.32812e-05
-0.00022243
2.20229e-05
4.46666e-05
-9.15402e-05
-2.32812e-05
3.89653e-05
-0.000107989
-1.51787e-05
3.83396e-05
-1.51787e-05
3.83396e-05
-9.60652e-05
4.62461e-05
-0.000107989
-5.11193e-05
3.83396e-05
2.20229e-05
3.83396e-05
2.20229e-05
4.62461e-05
-9.15402e-05
0.54209
0.910576
0.193744
0.571148
0.00167916
0.170928
0.00104317
0.0539068
0.00104317
0.0539068
-0.00259264
0.0201533
-0.00178509
0.0115686
0.00212279
-0.00697913
0.0115686
0.00167916
-0.00697913
0.00104317
-0.00697913
0.00104317
0.0030858
-0.00259264
0.00212279
-0.00697913
-0.00062308
0.0030858
-0.000501023
0.00229594
0.000531587
-0.000566826
0.00229594
-0.00178509
-0.000566826
0.00212279
-0.000566826
0.00212279
0.000424344
-0.00062308
0.000531587
-0.000566826
-5.11194e-05
0.000424344
-5.56966e-05
-0.000389586
-1.92435e-05
0.000181721
-1.92435e-05
0.000181721
3.89653e-05
-0.000107989
-0.000389586
-0.000501022
0.000181721
0.000531587
0.000181721
0.000531587
-0.000107989
-5.11194e-05
0.612041
0.900789
0.154433
0.525271
0.154433
0.525271
0.00167916
0.170928
0.0190601
0.19914
0.00243542
0.0195509
0.19914
0.612041
0.0195509
0.154433
0.0195509
0.154433
0.0115686
0.00167916
0.00243542
0.0195509
-0.00178509
0.0115686
-0.00059816
0.00162743
1.05607e-05
-6.31975e-05
0.00162743
0.0190601
-6.31974e-05
0.00243542
-6.31974e-05
0.00243542
0.00229594
-0.00178509
1.05607e-05
-6.31975e-05
-0.000501023
0.00229594
0.00025923
0.000199855
6.44453e-05
0.000383097
6.44453e-05
0.000383097
-5.56967e-05
-0.000389586
0.000199855
-0.00059816
0.000383097
1.05607e-05
0.000383097
1.05607e-05
-0.000389586
-0.000501022
0.828102
0.991218
0.612041
0.900789
0.36735
0.828102
0.19914
0.612041
0.0527422
0.36735
0.0190601
0.19914
0.00349787
0.0527422
0.00162743
0.0190601
-1.93237e-05
6.04445e-06
4.42116e-06
-1.05263e-05
6.04445e-06
1.49026e-05
-1.05263e-05
3.29043e-05
4.42116e-06
-1.05263e-05
-3.5283e-06
7.45466e-06
-1.05263e-05
3.29043e-05
7.45466e-06
3.12986e-05
3.29043e-05
5.11963e-05
3.12986e-05
5.29594e-05
5.11963e-05
-8.31392e-06
5.29594e-05
6.82517e-05
6.14229e-06
-3.5283e-06
-1.55734e-06
-2.87066e-06
-3.5283e-06
3.12986e-05
-2.87066e-06
1.18907e-05
3.12986e-05
5.29594e-05
1.18907e-05
1.26466e-05
5.29594e-05
6.82517e-05
1.26466e-05
1.74391e-05
6.82517e-05
0.000157957
1.74391e-05
3.74199e-05
0.000157957
9.51352e-05
3.74199e-05
4.111e-05
-1.55735e-06
-2.87066e-06
-5.80334e-07
-2.98347e-07
-2.87066e-06
1.18907e-05
-2.98347e-07
-1.15547e-06
1.18907e-05
1.74391e-05
-1.15547e-06
-6.94344e-06
1.74391e-05
3.74199e-05
-6.94344e-06
-5.22502e-06
3.74199e-05
4.111e-05
-5.22502e-06
-4.05157e-06
4.111e-05
-5.5728e-05
-4.05157e-06
-5.90668e-06
-5.5728e-05
-3.16799e-05
-5.90668e-06
1.0285e-05
-3.16799e-05
0.000234876
1.0285e-05
5.78257e-05
0.000234876
-0.000156072
5.78257e-05
3.18844e-05
-0.000156072
-0.000600801
3.18844e-05
-1.75579e-06
-0.000600801
-0.000605972
-1.75579e-06
3.42181e-05
-2.98347e-07
-1.15547e-06
-5.62692e-08
-1.21814e-06
-1.15547e-06
-6.94344e-06
-1.21814e-06
-3.74481e-06
-6.94344e-06
-4.05157e-06
-3.74481e-06
-4.26739e-06
-4.05157e-06
-5.90668e-06
-4.26739e-06
-1.48202e-05
-5.90668e-06
1.0285e-05
-1.48202e-05
-8.77613e-06
1.0285e-05
5.78257e-05
-8.77614e-06
2.98909e-05
5.78257e-05
3.18844e-05
2.98909e-05
5.61966e-05
3.18844e-05
-1.75581e-06
5.61966e-05
3.04024e-05
-1.75581e-06
3.42181e-05
3.04024e-05
-5.23793e-06
-7.68027e-05
-2.97913e-05
-0.000156072
-0.000600801
-2.97912e-05
0.000212605
-0.000600801
-0.000605972
-0.000182836
-0.000223814
-3.16799e-05
0.000234876
-0.000223814
-7.68027e-05
0.000234876
-0.000156071
9.51352e-05
-0.000129298
4.111e-05
-5.5728e-05
-0.000129298
-0.000182836
-5.57281e-05
-3.16799e-05
0.00167826
0.00444119
0.000169019
0.00378573
0.00444119
0.00507508
0.00378573
0.00619334
0.00378573
0.00619334
-2.97912e-05
0.000212605
0.000169019
0.00378573
-7.68026e-05
-2.97913e-05
4.48576e-05
-0.00088199
0.000263089
-0.00188317
-0.00088199
0.00167826
-0.00188317
0.000169019
-0.00188317
0.000169019
-0.000223814
-7.68027e-05
0.000263089
-0.00188317
-0.000182836
-0.000223814
4.60682e-05
0.000242702
6.0612e-05
0.000559151
6.0612e-05
0.000559151
9.51352e-05
-0.000129298
0.000242702
4.48576e-05
0.000559151
0.000263089
0.000559151
0.000263089
-0.000129298
-0.000182836
-8.31392e-06
-7.72298e-06
6.82517e-05
0.000157957
-7.72298e-06
4.60682e-05
0.000157957
9.51352e-05
0.0062357
0.00920718
-0.00246402
-0.00351542
0.00920718
0.00675772
-0.00351542
-0.00190421
-0.00351543
-0.00190421
0.00444119
0.00507508
-0.00246402
-0.00351542
0.00167826
0.00444119
0.000226129
0.00147098
0.000595403
0.000658959
0.00147098
0.0062357
0.000658959
-0.00246402
0.000658959
-0.00246402
-0.00088199
0.00167826
0.000595403
0.000658959
4.48576e-05
-0.00088199
0.00013434
-1.88509e-05
0.000122031
-0.000718479
-1.88509e-05
0.000226129
-0.000718479
0.000595403
-0.000718479
0.000595403
0.000242702
4.48576e-05
0.000122031
-0.000718479
4.60682e-05
0.000242702
-2.41916e-05
4.79372e-05
-3.49821e-05
3.03757e-06
-3.49821e-05
3.03757e-06
-8.31393e-06
-7.72298e-06
4.79372e-05
0.00013434
3.03755e-06
0.000122031
3.03755e-06
0.000122031
-7.72298e-06
4.60682e-05
1.49026e-05
-4.35924e-05
3.29043e-05
5.11963e-05
-4.35924e-05
-2.41916e-05
5.11963e-05
-8.31392e-06
0.0201844
0.029781
-0.0121692
-0.0205888
0.029781
0.0252252
-0.0205888
-0.016108
-0.0205889
-0.016108
0.00920719
0.00675772
-0.0121693
-0.0205888
0.0062357
0.00920719
0.00097455
0.00282971
-0.000186855
-0.000951732
0.00282971
0.0201844
-0.000951733
-0.0121692
-0.000951732
-0.0121693
0.00147098
0.0062357
-0.000186855
-0.000951732
0.000226129
0.00147098
0.000257973
0.00102526
-9.71584e-05
-0.000645644
0.00102526
0.00097455
-0.000645644
-0.000186855
-0.000645644
-0.000186855
-1.8851e-05
0.000226129
-9.71584e-05
-0.000645644
0.00013434
-1.88509e-05
5.29759e-05
-0.000196629
1.67179e-05
0.000156692
-0.000196629
0.000257973
0.000156692
-9.71585e-05
0.000156692
-9.71584e-05
4.79372e-05
0.00013434
1.67179e-05
0.000156692
-2.41916e-05
4.79372e-05
5.90401e-05
-4.72585e-06
-1.35903e-05
0.000155053
-1.35903e-05
0.000155053
1.49026e-05
-4.35924e-05
-4.72584e-06
5.29759e-05
0.000155053
1.67179e-05
0.000155053
1.67179e-05
-4.35924e-05
-2.41916e-05
0.000227947
0.0159564
0.00097455
0.00282971
0.00161477
0.0135103
-0.000233898
-0.00292004
0.0135103
0.036881
-0.00292004
0.000227947
-0.00292004
0.000227947
0.00102526
0.00097455
-0.000233898
-0.00292004
0.000257973
0.00102526
-0.000338194
0.0001585
7.40134e-05
0.000228978
0.000158499
0.00161477
0.000228978
-0.000233898
0.000228978
-0.000233898
-0.000196629
0.000257973
7.40134e-05
0.000228978
5.29759e-05
-0.000196629
0.000712759
-0.000338194
-0.000283381
7.40134e-05
-0.000283381
7.40134e-05
-4.72582e-06
5.29759e-05
0.0272334
0.133292
0.00161477
0.0135103
0.00598443
0.0272334
0.000158499
0.00161477
-0.00161301
0.00598443
-0.000338194
0.000158499
0.999705
0.999833
1.00032
1.00049
0.999537
0.999734
1.00024
0.999924
0.999734
1.00081
0.999924
0.99903
1.00081
1.00032
0.99903
0.999103
1.00032
1.00049
0.999103
0.998938
1.00049
1.00039
0.998938
0.999617
1.00039
1.00038
0.999617
0.998274
1.00024
1.00227
1.00173
1.00191
1.00227
0.999924
1.00191
1.003
0.999924
0.99903
1.003
1.00229
0.99903
0.999103
1.00229
1.00156
0.999103
0.998938
1.00156
1.00177
0.998938
0.999617
1.00177
1.00128
0.999617
0.998274
1.00128
1.00212
1.00173
1.00191
0.998136
0.998647
1.00191
1.003
0.998647
0.999863
1.003
1.00303
0.999863
1.00439
1.00303
1.00229
1.00439
0.996351
1.00229
1.00156
0.996351
0.993384
1.00156
1.00177
0.993383
0.997573
1.00177
1.00128
0.997573
0.997075
1.00128
1.00212
0.997075
0.997479
0.999863
1.00439
0.989281
1.01355
1.00439
0.996351
1.01355
1.00395
0.996351
0.992122
1.00395
0.991603
0.992122
0.993383
0.991603
0.995135
0.993383
0.995855
0.995135
1.00416
0.995855
0.997573
1.00416
1.00698
0.997573
0.997635
1.00698
1.00605
0.997635
0.997075
1.00605
1.00518
0.997075
0.997076
1.00518
1.00714
0.997076
0.997479
1.00714
1.00783
0.997445
0.99473
1.00246
1.00559
1.00395
0.991603
0.994954
0.984523
0.991603
0.995135
0.984523
0.986531
0.995135
1.00416
0.986531
0.993249
1.00416
1.00698
0.993249
0.991996
1.00698
1.00605
0.991996
0.992788
1.00605
1.00518
0.992788
0.993036
1.00518
1.00714
0.993036
0.992277
1.00714
1.00783
0.992277
0.991712
1.00783
1.00246
0.991712
0.994412
1.00246
1.00559
0.994412
0.991203
0.759794
0.760761
0.189029
0.189639
0.760761
0.759376
0.189639
0.191609
0.762822
0.755614
0.183714
0.189246
0.755614
0.759794
0.189246
0.189029
0.183714
0.189246
0.00674858
0.00371172
0.705557
0.730881
0.0981307
0.134652
0.730881
0.762822
0.134652
0.183714
0.134652
0.183714
0.0150235
0.00674858
0.0981307
0.134652
0.0252252
0.0150235
0.464154
0.650543
0.0258762
0.0533146
0.650543
0.705557
0.0533146
0.0981307
0.0533146
0.0981307
0.029781
0.0252252
0.0258762
0.0533146
0.0201844
0.029781
0.036881
0.193717
0.000227947
0.0159564
0.193717
0.464154
0.0159564
0.0258762
0.0159564
0.0258762
0.00282971
0.0201844
0.993036
0.992277
0.759376
0.761077
0.992277
0.991712
0.761077
0.757207
0.991996
0.992788
0.759794
0.760761
0.992788
0.993036
0.760761
0.759376
0.986531
0.993249
0.762822
0.755614
0.993249
0.991996
0.755614
0.759794
0.994954
0.984523
0.705557
0.730881
0.984523
0.986531
0.730881
0.762822
0.970115
0.983061
0.885277
0.979231
0.885277
0.979231
0.464154
0.650543
0.983061
0.994954
0.979231
0.997959
0.979231
0.997959
0.650543
0.705557
0.791381
0.87694
0.276915
0.546826
0.87694
0.970115
0.546826
0.885276
0.546826
0.885276
0.193717
0.464154
0.276915
0.546826
0.036881
0.193717
0.193744
0.571148
0.0272334
0.133292
0.571148
0.791381
0.133292
0.276915
0.133292
0.276915
0.0135104
0.036881
0.989281
1.01355
0.970115
0.983061
1.01355
1.00395
0.983061
0.994954
0.997329
0.997634
0.986669
0.991818
0.986669
0.991818
0.791381
0.87694
0.997634
0.989281
0.991818
0.979137
0.991818
0.979137
0.87694
0.970115
0.761429
0.97627
0.54209
0.910576
0.97627
0.997329
0.910576
0.986669
0.910576
0.986669
0.571148
0.791381
0.170928
0.761429
0.0539068
0.54209
0.0539068
0.54209
0.0201533
0.193744
0.998136
0.998647
0.997329
0.997634
0.998647
0.999863
0.997634
0.989281
0.98216
0.991229
0.873735
0.975025
0.873735
0.975025
0.761429
0.97627
0.991229
0.998136
0.975025
0.994892
0.975025
0.994892
0.97627
0.997329
0.900789
0.98216
0.525271
0.873735
0.525271
0.873735
0.170928
0.761429
1.00586
1.0032
0.990104
0.99644
0.990104
0.99644
0.98216
0.991229
1.0032
1.00173
0.99644
1.0008
0.99644
1.0008
0.991229
0.998136
0.949182
0.997573
0.828102
0.991218
0.997573
1.00586
0.991218
0.990104
0.991218
0.990104
0.900789
0.98216
1.00597
0.995991
0.998373
0.997165
0.998373
0.997165
1.00586
1.0032
0.995991
1.00024
0.997165
1.00123
0.997165
1.00123
1.0032
1.00173
0.997063
1.00597
1.00354
0.998373
1.00354
0.998374
0.997573
1.00586
0.000109743
0.000103837
0.000210231
0.000152623
0.000103837
0.000111318
0.000152623
0.000116843
0.000111318
8.89168e-05
0.000116843
0.000139136
8.89168e-05
8.23745e-05
0.000139136
0.000162531
8.23745e-05
0.000125529
0.000162531
0.000153652
0.000125529
0.000132987
0.000153652
0.000198743
0.000132987
-7.30282e-06
0.000198743
0.000347128
-0.000605972
-0.000656283
3.42181e-05
-6.82384e-05
-0.000656283
-0.000183037
-6.82384e-05
-5.49812e-05
-0.000183037
0.000168692
-5.49812e-05
1.16062e-05
0.000168692
0.000210231
1.16062e-05
4.75101e-06
0.000210231
0.000152623
4.75101e-06
6.74062e-07
0.000152623
0.000116843
6.74062e-07
2.75571e-06
0.000116843
0.000139136
2.75571e-06
-8.33974e-06
0.000139136
0.000162531
-8.33974e-06
-1.09771e-05
0.000162531
0.000153652
-1.09771e-05
1.43106e-05
0.000153652
0.000198743
1.43106e-05
3.73462e-05
0.000198743
0.000347129
3.73462e-05
1.88052e-05
0.000347129
-0.000123309
1.88052e-05
-6.75799e-05
3.42181e-05
-6.82384e-05
-5.23793e-06
-5.44371e-06
-6.82384e-05
-5.49812e-05
-5.44371e-06
5.18097e-06
-5.49812e-05
1.16062e-05
5.18097e-06
-3.57901e-06
1.16062e-05
4.75101e-06
-3.57901e-06
-1.44977e-05
4.75101e-06
2.75571e-06
-1.44977e-05
-1.249e-06
2.75571e-06
-1.09771e-05
-1.249e-06
-1.74096e-05
-1.09771e-05
3.73462e-05
-1.74096e-05
5.16376e-06
3.73462e-05
-6.75799e-05
5.16376e-06
-0.000102381
-3.98548e-05
5.3763e-05
-0.000183037
0.000168692
5.3763e-05
0.000109743
0.000168692
0.000210231
0.000212605
-6.79474e-05
-0.000605972
-0.000656283
-6.79474e-05
-3.98548e-05
-0.000656283
-0.000183037
-0.000195916
-8.80983e-05
0.000132987
-7.30281e-06
-8.80983e-05
0.000597773
-7.30284e-06
-0.000996375
-0.000185088
-0.000216135
8.23745e-05
0.000125529
-0.000216135
-0.000195916
0.000125529
0.000132987
-0.000202917
-0.000186823
0.000111318
8.89168e-05
-0.000186823
-0.000185088
8.89168e-05
8.23745e-05
-0.000209607
-0.000197041
0.000109743
0.000103837
-0.000197041
-0.000202917
0.000103837
0.000111318
-0.000289287
-0.000306865
-0.000427165
-0.000542835
-0.000427165
-0.000542835
-3.98548e-05
5.3763e-05
-0.000306865
-0.000209607
-0.000542835
-0.000394222
-0.000542835
-0.000394222
5.3763e-05
0.000109743
0.00507508
0.00236777
0.00619334
0.00295669
0.00236777
-0.000289287
0.00295669
-0.000427165
0.00295669
-0.000427165
-6.79474e-05
-3.98548e-05
0.00619334
0.00295669
0.000212605
-6.79474e-05
-0.00074237
-0.000253066
0.000321091
7.7787e-05
0.000321091
7.77869e-05
-0.000195916
-8.80983e-05
-0.000697951
-0.000876389
0.000301593
0.000371528
-0.000876389
-0.00074237
0.000371528
0.000321091
0.000371528
0.000321091
-0.000216135
-0.000195916
0.000301593
0.000371528
-0.000185088
-0.000216135
-0.000789279
-0.000754238
0.000341255
0.000316608
-0.000754238
-0.000697951
0.000316608
0.000301593
0.000316608
0.000301593
-0.000186823
-0.000185088
0.000341255
0.000316608
-0.000202917
-0.000186823
-0.000741089
-0.000881011
0.000309475
0.000361358
-0.000881011
-0.000789279
0.000361358
0.000341255
0.000361358
0.000341255
-0.000197041
-0.000202917
0.000309475
0.000361358
-0.000209607
-0.000197041
-0.000305573
-0.00076983
7.84897e-05
0.000290401
-0.00076983
-0.000741089
0.000290401
0.000309475
0.000290401
0.000309475
-0.000306865
-0.000209607
7.84897e-05
0.000290401
-0.000289287
-0.000306865
0.00675772
0.00209128
-0.00190421
-0.000510355
0.00209128
-0.000305573
-0.000510355
7.84897e-05
-0.000510355
7.84897e-05
0.00236777
-0.000289287
-0.00190421
-0.000510355
0.00507508
0.00236777
0.00357232
0.00102752
0.00146657
0.00120483
0.00146657
0.00120483
-0.00074237
-0.000253066
0.00408188
0.00268903
0.00146004
0.00189048
0.00268903
0.00357232
0.00189048
0.00146657
0.00189048
0.00146657
-0.000876389
-0.00074237
0.00146004
0.00189048
-0.000697951
-0.000876389
0.00370768
0.00336812
0.00169168
0.00163188
0.00336812
0.00408188
0.00163188
0.00146004
0.00163188
0.00146004
-0.000754239
-0.000697951
0.00169168
0.00163188
-0.000789279
-0.000754238
0.00344731
0.00276024
0.00156517
0.00188256
0.00276024
0.00370768
0.00188256
0.00169168
0.00188256
0.00169169
-0.000881011
-0.000789279
0.00156517
0.00188256
-0.000741089
-0.000881011
0.00674858
0.00371172
0.000833337
0.00161798
0.00371172
0.00344731
0.00161798
0.00156517
0.00161798
0.00156517
-0.00076983
-0.000741089
0.000833337
0.00161798
-0.000305573
-0.000769831
0.0252252
0.0150235
-0.016108
-0.0044885
0.0150235
0.00674858
-0.0044885
0.000833337
-0.0044885
0.000833337
0.00209128
-0.000305573
-0.016108
-0.0044885
0.00675772
0.00209128
0.755446
0.801401
0.191755
0.150624
0.191755
0.150624
0.00357232
0.00102752
0.757207
0.760279
0.190542
0.187715
0.760279
0.755446
0.187715
0.191755
0.187715
0.191755
0.00268903
0.00357232
0.190541
0.187715
0.00408188
0.00268903
0.759376
0.761077
0.191609
0.187474
0.761077
0.757207
0.187474
0.190542
0.187474
0.190542
0.00336812
0.00408188
0.191609
0.187474
0.00370768
0.00336812
0.189639
0.191609
0.00276024
0.00370768
0.189029
0.189639
0.00344731
0.00276024
0.189246
0.189029
0.00371172
0.00344731
-8.85899e-07
8.87924e-06
4.06884e-06
4.69292e-06
8.87924e-06
-3.40277e-05
4.69292e-06
-2.98405e-05
-3.40277e-05
3.44554e-05
-2.98405e-05
2.39526e-05
3.44554e-05
-0.00029279
2.39527e-05
-0.000236831
-0.00029279
0.000326246
-0.000236831
0.000349911
0.000326246
-0.000727551
0.000349911
-0.000828712
-0.000727551
-0.00114213
-0.000828712
-0.000816023
4.06884e-06
4.69292e-06
8.80404e-06
-2.08055e-05
4.69292e-06
-2.98405e-05
-2.08055e-05
5.94622e-05
-2.98405e-05
2.39527e-05
5.94622e-05
-6.96627e-05
2.39527e-05
-0.000236831
-6.96626e-05
0.000528439
-0.000236831
0.000349911
0.000528439
-0.000478504
0.000349911
-0.000828712
-0.000478504
0.00101123
-0.000828712
-0.000816023
0.00101123
0.00224429
8.80403e-06
-2.08055e-05
-2.25457e-05
5.82206e-05
-2.08055e-05
5.94622e-05
5.82206e-05
-0.000170246
5.94622e-05
-9.04381e-05
-0.000170246
-0.000129184
-9.04381e-05
-6.96627e-05
-0.000129184
0.000119945
-6.96627e-05
0.000342362
0.000119945
-0.000836057
0.000342362
0.000528439
-0.000836057
-0.00132513
0.000528439
-1.24113e-05
-0.00132513
0.000183914
-1.24113e-05
-0.000478504
0.000183914
0.00101022
-0.000478505
-3.1459e-05
0.00101022
-0.00048009
-3.1459e-05
0.00101123
-0.00048009
-0.00133799
0.00101123