# vtk DataFile Version 2.0
Hex test
ASCII
DATASET UNSTRUCTURED_GRID
POINTS 10448 float
-18 -18 0
-18 -14.1667 0
-14.1667 -18 0
-14.1667 -14.1667 0
-18 -14.1667 0
-18 -12 0
-14.1667 -14.1667 0
-14.1667 -12 0
-18 -12 0
-18 -10 0
-14.1667 -12 0
-14.1667 -10 0
-18 -10 0
-18 -8 0
-14.1667 -10 0
-14.1667 -8 0
-18 -8 0
-18 -6 0
-14.1667 -8 0
-14.1667 -6 0
-18 -6 0
-18 -4 0
-14.1667 -6 0
-14.1667 -4 0
-18 -4 0
-18 -2 0
-14.1667 -4 0
-14.1667 -2 0
-18 -2 0
-18 0 0
-14.1667 -2 0
-14.1667 0 0
-18 0 0
-18 2 0
-14.1667 0 0
-14.1667 2 0
-18 2 0
-18 4 0
-14.1667 2 0
-14.1667 4 0
-18 4 0
-18 6 0
-14.1667 4 0
-14.1667 6 0
-14.1667 -18 0
-14.1667 -14.1667 0
-12 -18 0
-12 -14.1667 0
-14.1667 -14.1667 0
-14.1667 -12 0
-12 -14.1667 0
-12 -12 0
-14.1667 -12 0
-14.1667 -10 0
-12 -12 0
-12 -10 0
-14.1667 -10 0
-14.1667 -8 0
-12 -10 0
-12 -8 0
-14.1667 -8 0
-14.1667 -6 0
-12 -8 0
-12 -6 0
-14.1667 -6 0
-14.1667 -4 0
-12 -6 0
-12 -4 0
-14.1667 -4 0
-14.1667 -2 0
-12 -4 0
-12 -2 0
-14.1667 -2 0
-14.1667 -2.77556e-17 0
-12 -2 0
-12 -2.77556e-17 0
-14.1667 -1.38778e-17 0
-14.1667 2 0
-12 2.77556e-17 0
-12 2 0
-14.1667 2 0
-14.1667 4 0
-12 2 0
-12 4 0
-14.1667 4 0
-14.1667 6 0
-12 4 0
-12 6 0
-12 -18 0
-12 -14.1667 0
-10 -18 0
-10 -14.1667 0
-12 -14.1667 0
-12 -12 0
-10 -14.1667 0
-10 -12 0
-12 -12 0
-12 -10 0
-10 -12 0
-10 -10 0
-12 -10 0
-12 -8 0
-10 -10 0
-10 -8 0
-12 -8 0
-12 -6 0
-10 -8 0
-10 -6 0
-12 -6 0
-12 -4 0
-10 -6 0
-10 -4 0
-12 -4 0
-12 -2 0
-10 -4 0
-10 -2 0
-12 -2 0
-12 -2.77556e-17 0
-10 -2 0
-10 -2.77556e-17 0
-12 2.77556e-17 0
-12 2 0
-10 2.77556e-17 0
-10 2 0
-12 2 0
-12 4 0
-10 2 0
-10 4 0
-12 4 0
-12 6 0
-10 4 0
-10 6 0
-10 -18 0
-10 -14.1667 0
-8 -18 0
-8 -14.1667 0
-10 -14.1667 0
-10 -12 0
-8 -14.1667 0
-8 -12 0
-10 -12 0
-10 -10 0
-8 -12 0
-8 -10 0
-10 -10 0
-10 -8 0
-8 -10 0
-8 -8 0
-10 -8 0
-10 -6 0
-8 -8 0
-8 -6 0
-10 -6 0
-10 -4 0
-8 -6 0
-8 -4 0
-10 -4 0
-10 -2 0
-8 -4 0
-8 -2 0
-10 -2 0
-10 -2.77556e-17 0
-8 -2 0
-8 -2.77556e-17 0
-10 2.77556e-17 0
-10 2 0
-8 2.77556e-17 0
-8 2 0
-10 2 0
-10 4 0
-8 2 0
-8 4 0
-10 4 0
-10 6 0
-8 4 0
-8 6 0
-10 6 0
-10 8 0
-8 6 0
-8 8 0
-8 -18 0
-8 -14.1667 0
-6 -18 0
-6 -14.1667 0
-8 -14.1667 0
-8 -12 0
-6 -14.1667 0
-6 -12 0
-8 -12 0
-8 -10 0
-6 -12 0
-6 -10 0
-8 -10 0
-8 -8 0
-6 -10 0
-6 -8 0
-8 -8 0
-8 -6 0
-6 -8 0
-6 -6 0
-8 -6 0
-8 -4 0
-6 -6 0
-6 -4 0
-8 -4 0
-8 -2 0
-6 -4 0
-6 -2 0
-8 -2 0
-8 -2.77556e-17 0
-6 -2 0
-6 -2.77556e-17 0
-8 2.77556e-17 0
-8 2 0
-6 2.77556e-17 0
-6 2 0
-8 2 0
-8 4 0
-6 2 0
-6 4 0
-8 4 0
-8 6 0
-6 4 0
-6 6 0
-8 6 0
-8 8 0
-6 6 0
-6 8 0
-6 -18 0
-6 -14.1667 0
-4 -18 0
-4 -14.1667 0
-6 -14.1667 0
-6 -12 0
-4 -14.1667 0
-4 -12 0
-6 -12 0
-6 -10 0
-4 -12 0
-4 -10 0
-6 -10 0
-6 -8 0
-4 -10 0
-4 -8 0
-6 -8 0
-6 -6 0
-4 -8 0
-4 -6 0
-6 -6 0
-6 -4 0
-4 -6 0
-4 -4 0
-6 -4 0
-6 -2 0
-4 -4 0
-4 -2 0
-6 -2 0
-6 -2.77556e-17 0
-4 -2 0
-4 -2.77556e-17 0
-6 2.77556e-17 0
-6 2 0
-4 2.77556e-17 0
-4 2 0
-6 2 0
-6 4 0
-4 2 0
-4 4 0
-6 4 0
-6 5 0
-4 4 0
-4 5 0
-6 5 0
-6 6 0
-4 5 0
-4 6 0
-6 6 0
-6 7 0
-4 6 0
-4 7 0
-6 7 0
-6 8 0
-4 7 0
-4 8 0
-4 -18 0
-4 -14.1667 0
-2 -18 0
-2 -14.1667 0
-4 -14.1667 0
-4 -12 0
-2 -14.1667 0
-2 -12 0
-4 -12 0
-4 -10 0
-2 -12 0
-2 -10 0
-4 -10 0
-4 -8 0
-2 -10 0
-2 -8 0
-4 -8 0
-4 -6 0
-2 -8 0
-2 -6 0
-4 -6 0
-4 -4 0
-2 -6 0
-2 -4 0
-4 -4 0
-4 -2 0
-2 -4 0
-2 -2 0
-4 -2 0
-4 -2.77556e-17 0
-2 -2 0
-2 -2.08167e-17 0
-4 2.77556e-17 0
-4 2 0
-2 3.46945e-17 0
-2 2 0
-4 2 0
-4 3 0
-2 2 0
-2 3 0
-4 3 0
-4 4 0
-2 3 0
-2 4 0
-4 4 0
-4 5 0
-2 4 0
-2 5 0
-4 5 0
-4 6 0
-2 5 0
-2 6 0
-4 6 0
-4 7 0
-2 6 0
-2 7 0
-4 7 0
-4 8 0
-2 7 0
-2 8 0
-2 -18 0
-2 -14.1667 0
0 -18 0
4.16334e-17 -14.1667 0
-2 -14.1667 0
-2 -12 0
-4.16334e-17 -14.1667 0
-5.55112e-17 -12 0
-2 -12 0
-2 -10 0
-2.77556e-17 -12 0
-5.55112e-17 -10 0
-2 -10 0
-2 -8 0
-2.77556e-17 -10 0
-5.55112e-17 -8 0
-2 -8 0
-2 -6 0
-2.77556e-17 -8 0
-5.55112e-17 -6 0
-2 -6 0
-2 -4 0
-2.77556e-17 -6 0
-5.55112e-17 -4 0
-2 -4 0
-2 -2 0
-2.77556e-17 -4 0
-5.55112e-17 -2 0
-2 -2 0
-2 -2.08167e-17 0
-2.77556e-17 -2 0
-6.93889e-17 6.93889e-18 0
-2 2.77556e-17 0
-2 2 0
-8.32667e-17 3.46945e-17 0
5.55112e-17 2 0
-2 2 0
-2 3 0
4.85723e-17 2 0
6.245e-17 3 0
-2 3 0
-2 4 0
6.245e-17 3 0
6.93889e-18 4 0
0 -18 0
0 -14.1667 0
2 -18 0
2 -14.1667 0
-1.38778e-17 -14.1667 0
2.77556e-17 -12 0
2 -14.1667 0
2 -12 0
2.77556e-17 -12 0
2.77556e-17 -10 0
2 -12 0
2 -10 0
2.77556e-17 -10 0
2.77556e-17 -8 0
2 -10 0
2 -8 0
2.77556e-17 -8 0
2.77556e-17 -6 0
2 -8 0
2 -6 0
2.77556e-17 -6 0
2.77556e-17 -4 0
2 -6 0
2 -4 0
2.77556e-17 -4 0
2.77556e-17 -2 0
2 -4 0
2 -2 0
2.77556e-17 -2 0
-4.16334e-17 6.93889e-18 0
2 -2 0
2 6.93889e-18 0
-2.77556e-17 2.77556e-17 0
-1.21431e-17 1 0
2 3.46945e-17 0
2 1 0
-1.21431e-17 1 0
1.38778e-17 2 0
2 1 0
2 2 0
2 -18 0
2 -14.1667 0
4 -18 0
4 -14.1667 0
2 -14.1667 0
2 -12 0
4 -14.1667 0
4 -12 0
2 -12 0
2 -10 0
4 -12 0
4 -10 0
2 -10 0
2 -8 0
4 -10 0
4 -8 0
2 -8 0
2 -6 0
4 -8 0
4 -6 0
2 -6 0
2 -4 0
4 -6 0
4 -4 0
2 -4 0
2 -2 0
4 -4 0
4 -2 0
2 -2 0
2 1.11022e-16 0
4 -2 0
4 3.46945e-17 0
2 4.16334e-17 0
2 1 0
4 6.245e-17 0
4 1 0
2 1 0
2 2 0
4 1 0
4 2 0
4 -18 0
4 -14.1667 0
6 -18 0
6 -14.1667 0
4 -14.1667 0
4 -12 0
6 -14.1667 0
6 -12 0
4 -12 0
4 -10 0
6 -12 0
6 -10 0
4 -10 0
4 -8 0
6 -10 0
6 -8 0
4 -8 0
4 -6 0
6 -8 0
6 -6 0
4 -6 0
4 -4 0
6 -6 0
6 -4 0
4 -4 0
4 -2 0
6 -4 0
6 -2 0
6 -18 0
6 -14.1667 0
8 -18 0
8 -14.1667 0
6 -14.1667 0
6 -12 0
8 -14.1667 0
8 -12 0
6 -12 0
6 -10 0
8 -12 0
8 -10 0
6 -10 0
6 -8 0
8 -10 0
8 -8 0
6 -8 0
6 -6 0
8 -8 0
8 -6 0
6 -6 0
6 -4 0
8 -6 0
8 -4 0
8 -18 0
8 -14.1667 0
10 -18 0
10 -14.1667 0
8 -14.1667 0
8 -12 0
10 -14.1667 0
10 -12 0
8 -12 0
8 -10 0
10 -12 0
10 -10 0
8 -10 0
8 -8 0
10 -10 0
10 -8 0
8 -8 0
8 -6 0
10 -8 0
10 -6 0
-2 4 0
-2 5 0
2.77556e-17 4 0
8.32667e-17 5 0
-2 5 0
-2 6 0
0 5 0
6.93889e-18 6 0
-2 6 0
-2 7 0
-2.08167e-17 6 0
5.55112e-17 7 0
-2 7 0
-2 8 0
8.32667e-17 7 0
0 8 0
6.93889e-18 2 0
3.46945e-17 3 0
2 2 0
2 3 0
1.73472e-17 3 0
6.245e-17 4 0
2 3 0
2 4 0
5.55112e-17 4 0
5.55112e-17 5 0
1 4 0
1 5 0
1 4 0
1 5 0
2 4 0
2 5 0
6.245e-17 5 0
6.93889e-18 6 0
1 5 0
1 6 0
1 5 0
1 6 0
2 5 0
2 6 0
1.38778e-17 6 0
2.77556e-17 7 0
1 6 0
1 7 0
2.77556e-17 7 0
6.93889e-18 8 0
1 7 0
1 8 0
1 7 0
1 8 0
2 7 0
2 8 0
1 6 0
1 7 0
2 6 0
2 7 0
6.93889e-18 8 0
2.77556e-17 9 0
1 8 0
1 9 0
1 8 0
1 9 0
2 8 0
2 9 0
2 2 0
2 3 0
3 2 0
3 3 0
3 2 0
3 3 0
4 2 0
4 3 0
2 3 0
2 4 0
3 3 0
3 4 0
3 3 0
3 4 0
4 3 0
4 4 0
2 4 0
2 5 0
3 4 0
3 5 0
2 5 0
2 6 0
3 5 0
3 6 0
3 5 0
3 6 0
4 5 0
4 6 0
3 4 0
3 5 0
4 4 0
4 5 0
2 6 0
2 7 0
3 6 0
3 7 0
2 7 0
2 8 0
3 7 0
3 8 0
3 7 0
3 8 0
4 7 0
4 8 0
3 6 0
3 7 0
4 6 0
4 7 0
2 8 0
2 9 0
3 8 0
3 9 0
4 4 0
4 5 0
5 4 0
5 5 0
4 5 0
4 6 0
5 5 0
5 6 0
4 6 0
4 7 0
5 6 0
5 7 0
4 7 0
4 8 0
5 7 0
5 8 0
4 -2 0
4 8.32667e-17 0
6 -2 0
6 3.46945e-17 0
6 -4 0
6 -2 0
8 -4 0
8 -2 0
6 -2 0
6 8.32667e-17 0
8 -2 0
8 3.46945e-17 0
8 -6 0
8 -4 0
10 -6 0
10 -4 0
8 -4 0
8 -2 0
10 -4 0
10 -2 0
8 -2 0
8 5.55112e-17 0
10 -2 0
10 3.46945e-17 0
10 -8 0
10 -6 0
12 -8 0
12 -6 0
10 -6 0
10 -4 0
12 -6 0
12 -4 0
10 -4 0
10 -2 0
12 -4 0
12 -2 0
10 -2 0
10 5.55112e-17 0
12 -2 0
12 3.46945e-17 0
12 -8 0
12 -6 0
14 -8 0
14 -6 0
12 -6 0
12 -4 0
14 -6 0
14 -4 0
12 -4 0
12 -2 0
14 -4 0
14 -2 0
12 -2 0
12 5.55112e-17 0
14 -2 0
14 3.46945e-17 0
14 -6 0
14 -4 0
16 -6 0
16 -4 0
14 -4 0
14 -2 0
16 -4 0
16 -2 0
14 -2 0
14 5.55112e-17 0
16 -2 0
16 3.46945e-17 0
16 -4 0
16 -2 0
18 -4 0
18 -2 0
16 -2 0
16 5.55112e-17 0
18 -2 0
18 3.46945e-17 0
20 8 0
20 9 0
21 8 0
21 9 0
20 6 0
20 7 0
21 6 0
21 7 0
20 7 0
20 8 0
21 7 0
21 8 0
21 6 0
21 7 0
22 6 0
22 7 0
20 5 0
20 6 0
21 5 0
21 6 0
18 8 0
18 9 0
19 8 0
19 9 0
18 9 0
18 10 0
19 9 0
19 10 0
19 9 0
19 10 0
20 9 0
20 10 0
19 8 0
19 9 0
20 8 0
20 9 0
18 6 0
18 7 0
19 6 0
19 7 0
18 7 0
18 8 0
19 7 0
19 8 0
19 7 0
19 8 0
20 7 0
20 8 0
19 6 0
19 7 0
20 6 0
20 7 0
18 4 0
18 5 0
19 4 0
19 5 0
18 5 0
18 6 0
19 5 0
19 6 0
19 5 0
19 6 0
20 5 0
20 6 0
16 8 0
16 9 0
17 8 0
17 9 0
16 9 0
16 10 0
17 9 0
17 10 0
17 9 0
17 10 0
18 9 0
18 10 0
17 8 0
17 9 0
18 8 0
18 9 0
16 6 0
16 7 0
17 6 0
17 7 0
16 7 0
16 8 0
17 7 0
17 8 0
17 7 0
17 8 0
18 7 0
18 8 0
17 6 0
17 7 0
18 6 0
18 7 0
16 4 0
16 5 0
17 4 0
17 5 0
16 5 0
16 6 0
17 5 0
17 6 0
17 5 0
17 6 0
18 5 0
18 6 0
17 4 0
17 5 0
18 4 0
18 5 0
16 2 0
16 3 0
17 2 0
17 3 0
16 3 0
16 4 0
17 3 0
17 4 0
17 3 0
17 4 0
18 3 0
18 4 0
17 2 0
17 3 0
18 2 0
18 3 0
16 3.46945e-17 0
16 1 0
17 -2.60209e-18 0
17 1 0
17 -2.60209e-18 0
17 1 0
18 3.46945e-17 0
18 1 0
16 1 0
16 2 0
17 1 0
17 2 0
17 1 0
17 2 0
18 1 0
18 2 0
14 10 0
14 11 0
15 10 0
15 11 0
14 8 0
14 9 0
15 8 0
15 9 0
14 9 0
14 10 0
15 9 0
15 10 0
15 9 0
15 10 0
16 9 0
16 10 0
15 8 0
15 9 0
16 8 0
16 9 0
14 6 0
14 7 0
15 6 0
15 7 0
14 7 0
14 8 0
15 7 0
15 8 0
15 7 0
15 8 0
16 7 0
16 8 0
15 6 0
15 7 0
16 6 0
16 7 0
14 4 0
14 5 0
15 4 0
15 5 0
14 5 0
14 6 0
15 5 0
15 6 0
15 5 0
15 6 0
16 5 0
16 6 0
15 4 0
15 5 0
16 4 0
16 5 0
14 2 0
14 3 0
15 2 0
15 3 0
14 3 0
14 4 0
15 3 0
15 4 0
15 3 0
15 4 0
16 3 0
16 4 0
15 2 0
15 3 0
16 2 0
16 3 0
14 3.46945e-17 0
14 1 0
15 -2.60209e-18 0
15 1 0
15 -2.60209e-18 0
15 1 0
16 3.46945e-17 0
16 1 0
14 1 0
14 2 0
15 1 0
15 2 0
15 1 0
15 2 0
16 1 0
16 2 0
12 8 0
12 9 0
13 8 0
13 9 0
12 9 0
12 10 0
13 9 0
13 10 0
13 9 0
13 10 0
14 9 0
14 10 0
13 8 0
13 9 0
14 8 0
14 9 0
12 6 0
12 7 0
13 6 0
13 7 0
12 7 0
12 8 0
13 7 0
13 8 0
13 7 0
13 8 0
14 7 0
14 8 0
13 6 0
13 7 0
14 6 0
14 7 0
12 4 0
12 5 0
13 4 0
13 5 0
12 5 0
12 6 0
13 5 0
13 6 0
13 5 0
13 6 0
14 5 0
14 6 0
13 4 0
13 5 0
14 4 0
14 5 0
12 2 0
12 3 0
13 2 0
13 3 0
12 3 0
12 4 0
13 3 0
13 4 0
13 3 0
13 4 0
14 3 0
14 4 0
13 2 0
13 3 0
14 2 0
14 3 0
12 3.46945e-17 0
12 1 0
13 -2.60209e-18 0
13 1 0
13 -2.60209e-18 0
13 1 0
14 3.46945e-17 0
14 1 0
12 1 0
12 2 0
13 1 0
13 2 0
13 1 0
13 2 0
14 1 0
14 2 0
10 8 0
10 9 0
11 8 0
11 9 0
11 9 0
11 10 0
12 9 0
12 10 0
11 8 0
11 9 0
12 8 0
12 9 0
10 6 0
10 7 0
11 6 0
11 7 0
10 7 0
10 8 0
11 7 0
11 8 0
11 7 0
11 8 0
12 7 0
12 8 0
11 6 0
11 7 0
12 6 0
12 7 0
10 4 0
10 5 0
11 4 0
11 5 0
10 5 0
10 6 0
11 5 0
11 6 0
11 5 0
11 6 0
12 5 0
12 6 0
11 4 0
11 5 0
12 4 0
12 5 0
[...]
POINT_DATA 10448
SCALARS phi float 1
LOOKUP_TABLE default
3.77641e-09
3.01171e-09
5.49149e-09
6.03368e-09
3.01171e-09
-4.18816e-09
6.03368e-09
-6.77076e-09
-4.18816e-09
7.11364e-09
-6.77077e-09
1.03939e-08
7.11364e-09
-1.36794e-08
1.03939e-08
-1.87286e-08
-1.36794e-08
2.93776e-08
-1.87286e-08
4.58326e-08
2.93776e-08
-5.77441e-08
4.58326e-08
-8.99645e-08
-5.77441e-08
1.13857e-07
-8.99645e-08
1.7623e-07
1.13857e-07
-1.75736e-07
1.7623e-07
-3.02464e-07
-1.75736e-07
1.00522e-06
-3.02464e-07
1.36165e-06
1.00522e-06
-1.36836e-06
1.36165e-06
-1.35106e-06
-1.36836e-06
-6.83649e-07
-1.35106e-06
-2.43038e-07
5.49149e-09
6.03368e-09
-4.10089e-09
-2.92143e-09
6.03368e-09
-6.77077e-09
-2.92143e-09
6.57137e-09
-6.77077e-09
1.03939e-08
6.57137e-09
-1.255e-08
1.03939e-08
-1.87286e-08
-1.255e-08
2.46808e-08
-1.87286e-08
4.58326e-08
2.46808e-08
-4.48224e-08
4.58326e-08
-8.99645e-08
-4.48224e-08
8.72302e-08
-8.99645e-08
1.7623e-07
8.72302e-08
-1.67158e-07
1.7623e-07
-3.02464e-07
-1.67158e-07
2.44333e-07
-3.02464e-07
1.36165e-06
2.44333e-07
-1.43811e-06
1.36165e-06
-1.35106e-06
-1.43811e-06
2.24998e-06
-1.35106e-06
-2.43038e-07
2.24998e-06
1.28377e-06
-4.10089e-09
-2.92143e-09
4.29465e-09
9.41509e-10
-2.92143e-09
6.57137e-09
9.41509e-10
-9.4646e-09
6.57137e-09
-1.255e-08
-9.4646e-09
2.09109e-08
-1.255e-08
2.46807e-08
2.09109e-08
-4.29585e-08
2.46808e-08
-4.48224e-08
-4.29585e-08
6.4388e-08
-4.48224e-08
8.72303e-08
6.43881e-08
-1.23104e-07
8.72302e-08
-1.67158e-07
-1.23104e-07
2.3083e-07
-1.67158e-07
2.44333e-07
2.3083e-07
-3.00909e-07
2.44333e-07
-1.43811e-06
-3.00909e-07
2.04475e-06
-1.43811e-06
2.24998e-06
2.04475e-06
-3.90402e-06
2.24998e-06
1.28377e-06
-3.90402e-06
-2.65068e-06
4.29465e-09
9.41509e-10
-6.75697e-09
1.39356e-09
9.41511e-10
-9.4646e-09
1.39356e-09
1.7051e-08
-9.4646e-09
2.09109e-08
1.7051e-08
-3.9943e-08
2.09109e-08
-4.29585e-08
-3.9943e-08
8.37541e-08
-4.29585e-08
6.4388e-08
8.37541e-08
-1.13482e-07
6.43881e-08
-1.23104e-07
-1.13482e-07
2.14955e-07
-1.23104e-07
2.3083e-07
2.14955e-07
-3.95718e-07
2.3083e-07
-3.00909e-07
-3.95719e-07
5.04618e-07
-3.00909e-07
2.04475e-06
5.04618e-07
-3.51295e-06
2.04476e-06
-3.90402e-06
-3.51295e-06
7.22e-06
-3.90402e-06
-2.65068e-06
7.22e-06
5.07017e-06
-2.65068e-06
1.17825e-05
5.07017e-06
-2.11752e-05
-6.75697e-09
1.39356e-09
2.6173e-08
1.71308e-08
1.39356e-09
1.7051e-08
1.71308e-08
-4.64971e-08
1.7051e-08
-3.99429e-08
-4.64971e-08
9.16313e-08
-3.9943e-08
8.37541e-08
9.16313e-08
-1.80588e-07
8.37541e-08
-1.13482e-07
-1.80588e-07
3.07574e-07
-1.13482e-07
2.14955e-07
3.07575e-07
-5.84854e-07
2.14955e-07
-3.95719e-07
-5.84854e-07
1.10914e-06
-3.95718e-07
5.04618e-07
1.10914e-06
-1.6773e-06
5.04618e-07
-3.51295e-06
-1.6773e-06
8.83881e-06
-3.51295e-06
7.22e-06
8.83881e-06
-1.31221e-05
7.21999e-06
5.07017e-06
-1.31221e-05
-6.89574e-06
5.07017e-06
-2.11752e-05
-6.89574e-06
3.10589e-05
2.6173e-08
1.71308e-08
-1.20985e-07
-1.01425e-07
1.71308e-08
-4.6497e-08
-1.01425e-07
2.00598e-07
-4.64971e-08
9.16313e-08
2.00598e-07
-3.62592e-07
9.16313e-08
-1.80588e-07
-3.62592e-07
6.87565e-07
-1.80588e-07
3.07575e-07
6.87565e-07
-1.21584e-06
3.07574e-07
-5.84854e-07
-1.21584e-06
2.31032e-06
-5.84854e-07
1.10914e-06
2.31032e-06
-4.38165e-06
1.10914e-06
-1.6773e-06
-4.38165e-06
7.32372e-06
-1.6773e-06
8.83881e-06
7.32372e-06
-8.42137e-06
8.83881e-06
-1.31221e-05
-8.42137e-06
5.00356e-05
-1.31221e-05
-1.01531e-05
5.00356e-05
-4.71958e-05
-1.01531e-05
-6.89574e-06
-4.71958e-05
4.4669e-05
-6.89574e-06
-9.69545e-06
4.46691e-05
2.06628e-05
-9.69545e-06
3.10589e-05
2.06628e-05
-0.000300094
-1.20985e-07
-1.01425e-07
-4.25711e-09
-2.38163e-08
-1.01425e-07
2.00598e-07
-2.38163e-08
-4.44881e-08
2.00598e-07
-3.62592e-07
-4.44881e-08
1.37448e-07
-3.62592e-07
6.87565e-07
1.37448e-07
-3.2017e-07
6.87565e-07
-1.21584e-06
-3.2017e-07
5.40967e-07
-1.21584e-06
2.31032e-06
5.40967e-07
-1.14008e-06
2.31031e-06
-4.38165e-06
-1.14008e-06
2.32497e-06
-4.38165e-06
7.32372e-06
2.32497e-06
-4.13485e-06
7.32372e-06
-8.42136e-06
-4.13485e-06
9.34358e-05
-8.42137e-06
5.21316e-05
9.34358e-05
0.000144542
5.21316e-05
5.00356e-05
0.000144542
-1.79223e-05
5.00356e-05
-4.71958e-05
-1.79223e-05
-8.85063e-05
-4.71958e-05
4.46691e-05
-8.85063e-05
-2.25319e-05
4.46691e-05
2.06628e-05
-2.25319e-05
-0.000175477
2.06628e-05
-0.000300094
-0.000175477
-0.000302442
-4.25711e-09
-2.38163e-08
2.48961e-07
3.43249e-07
-2.38163e-08
-4.44881e-08
3.43249e-07
-2.94835e-07
-4.44881e-08
1.37448e-07
-2.94835e-07
3.66852e-07
1.37448e-07
-3.2017e-07
3.66852e-07
-5.62907e-07
-3.2017e-07
5.40967e-07
-5.62907e-07
1.7549e-06
5.40967e-07
-1.14008e-06
1.7549e-06
-3.45873e-06
-1.14008e-06
2.32497e-06
-3.45873e-06
6.85623e-06
2.32497e-06
-4.13485e-06
6.85623e-06
-1.87211e-05
-4.13485e-06
9.34358e-05
-1.87211e-05
7.46575e-06
9.34358e-05
0.000144542
7.46574e-06
-5.00005e-05
0.000144542
-1.79223e-05
-5.00005e-05
-1.3439e-05
2.48961e-07
3.43249e-07
4.29751e-07
3.35179e-07
3.43249e-07
-2.94835e-07
3.35179e-07
-7.24198e-07
-2.94835e-07
3.66852e-07
-7.24198e-07
1.28619e-06
3.66852e-07
-5.62907e-07
1.28619e-06
-2.33926e-06
-5.62907e-07
1.7549e-06
-2.33926e-06
3.63483e-06
1.7549e-06
-3.45873e-06
3.63483e-06
-5.84374e-06
-3.45873e-06
6.85623e-06
-5.84374e-06
9.12556e-06
6.85623e-06
-1.87211e-05
9.12556e-06
-9.23908e-06
-1.87211e-05
-1.07993e-06
-9.23908e-06
3.62282e-06
-1.07993e-06
7.46575e-06
3.62282e-06
-0.000153069
4.29751e-07
3.35179e-07
9.93203e-07
9.68564e-07
3.35179e-07
-7.24198e-07
9.68564e-07
-1.55176e-06
-7.24198e-07
1.28619e-06
-1.55176e-06
2.59093e-06
1.28619e-06
-2.33926e-06
2.59093e-06
-4.60364e-06
-2.33926e-06
3.63483e-06
-4.60364e-06
8.2432e-06
3.63483e-06
-5.84374e-06
8.2432e-06
-1.42648e-05
-5.84374e-06
9.12556e-06
-1.42648e-05
2.31834e-05
9.12556e-06
-9.23909e-06
2.31834e-05
-9.77414e-06
-9.23908e-06
3.62283e-06
-9.77414e-06
-3.8702e-05
3.62283e-06
-0.000153069
-3.8702e-05
-0.00040996
9.93203e-07
9.68564e-07
-2.6762e-07
-1.8182e-07
9.68564e-07
-1.55176e-06
-1.8182e-07
3.9484e-07
-1.55176e-06
2.59093e-06
3.9484e-07
-6.77354e-07
2.59093e-06
-4.60363e-06
-6.77354e-07
1.12828e-06
-4.60364e-06
8.2432e-06
1.12828e-06
-1.16662e-06
8.2432e-06
-1.42648e-05
-1.16662e-06
2.36047e-07
-1.42648e-05
2.31834e-05
2.36044e-07
-1.26744e-05
-2.6762e-07
-1.8182e-07
-1.14549e-06
-4.9257e-07
-1.8182e-07
3.9484e-07
-4.9257e-07
2.25401e-06
3.9484e-07
-6.77354e-07
2.25401e-06
-4.60416e-06
-6.77354e-07
1.12828e-06
-4.60416e-06
8.91883e-06
1.12828e-06
-1.16662e-06
8.91883e-06
-1.20681e-05
-1.16662e-06
2.36046e-07
-1.20681e-05
2.01921e-05
-1.14549e-06
-4.9257e-07
8.43765e-06
1.23152e-05
-4.92569e-07
2.25401e-06
1.23152e-05
-9.21199e-06
2.25401e-06
-4.60416e-06
-9.212e-06
9.0819e-06
-4.60417e-06
8.91882e-06
9.0819e-06
-9.76506e-06
8.91882e-06
-1.20681e-05
-9.76506e-06
4.0882e-05
-1.79223e-05
-8.85064e-05
-1.3439e-05
0.000488666
-8.85063e-05
-2.25319e-05
0.000488665
8.44774e-05
-2.25319e-05
-0.000175477
8.44773e-05
-7.26043e-05
-0.000175477
-0.000302442
-7.26042e-05
-0.000481927
7.46575e-06
-5.00005e-05
-0.000153069
0.000279007
-5.00005e-05
-1.3439e-05
0.000279007
-0.000459117
-1.3439e-05
0.000488665
-3.2629e-06
-0.000197707
-3.2629e-06
-0.000197707
-0.000459117
0.00078285
0.000488665
8.44774e-05
-0.000197707
0.000414612
-0.000197707
0.000414612
0.00078285
-0.0014269
8.44773e-05
-7.26043e-05
0.000414612
-0.00032655
-7.26044e-05
-0.000481927
-0.000326551
-0.00269286
-0.000326551
-0.00269286
-0.000149174
-0.00264039
0.000414612
-0.000326551
-0.0014269
-0.000149174
-0.000481927
-0.000126913
-0.00269286
0.00569775
-0.00269286
0.00569775
-0.00264039
0.0259108
-0.000153069
0.000279007
-0.000436083
0.000672575
-0.000436083
0.000672575
-0.00040996
0.00045668
0.000279007
-0.000459117
0.000672575
-0.00176635
0.000672575
-0.00176635
0.00045668
-0.00204807
-0.000459117
0.00078285
-0.00176635
0.00363276
0.00078285
-0.0014269
0.00363276
-0.0051559
0.00363276
-0.0051559
0.00285775
-0.00982723
-0.00176635
0.00363276
-0.00204807
0.00285775
-0.0014269
-0.000149174
-0.0051559
0.0155285
-0.000149173
-0.00264039
0.0155285
-0.0112282
0.0155285
-0.0112282
0.0206277
0.0848787
-0.0051559
0.0155285
-0.00982723
0.0206277
-0.00264039
0.0259108
-0.0112281
0.211484
-0.00204807
0.00285775
0.00205135
-0.00240916
0.00285775
-0.00982723
-0.00240915
0.0160449
-0.00982723
0.0206277
0.0160449
0.0357249
0.0206277
0.0848787
0.0357249
0.40968
2.31834e-05
-9.77414e-06
-1.26744e-05
6.11123e-05
2.36044e-07
-1.26744e-05
2.01921e-05
-3.46529e-05
-1.26744e-05
6.11123e-05
-3.46529e-05
2.87434e-06
-1.20681e-05
2.01921e-05
4.0882e-05
-6.805e-05
2.01921e-05
-3.46529e-05
-6.805e-05
0.00011527
-3.46529e-05
2.87433e-06
0.00011527
-2.60029e-05
-9.76506e-06
4.0882e-05
-3.83345e-06
1.24948e-05
4.0882e-05
-6.805e-05
1.24948e-05
-2.05296e-05
-6.805e-05
0.00011527
-2.05296e-05
3.50167e-05
0.00011527
-2.60029e-05
3.50167e-05
6.02362e-06
-3.83345e-06
1.24948e-05
6.64096e-06
-1.22224e-05
1.24948e-05
-2.05296e-05
-1.22224e-05
2.20394e-05
-2.05296e-05
3.50167e-05
2.20394e-05
-3.48779e-05
3.50167e-05
6.02365e-06
-3.48779e-05
-7.89901e-06
-1.22224e-05
2.20394e-05
9.16254e-06
-1.66754e-05
2.20394e-05
-3.48779e-05
-1.66753e-05
2.87906e-05
-3.48779e-05
-7.899e-06
2.87906e-05
-1.50164e-05
-1.66753e-05
2.87906e-05
3.7938e-05
-6.8549e-05
2.87906e-05
-1.50164e-05
-6.85491e-05
2.21201e-05
0.432154
0.911832
0.108715
0.617897
0.00954204
0.0426334
-0.00214832
0.0177242
0.0426334
0.432154
0.0177242
0.108715
-0.00214832
0.0177242
-0.00220386
0.0052105
-0.00342143
0.00954204
0.00222863
-0.00214831
0.491707
0.942349
0.638804
0.972675
0.942349
0.987225
0.972675
0.991578
0.972675
0.991578
0.911832
0.985389
0.638804
0.972675
0.432154
0.911832
0.0111163
0.0481766
0.0150576
0.0835443
0.0481766
0.491707
0.0835443
0.638804
0.0835443
0.638804
0.0426334
0.432154
0.0150576
0.0835443
0.00954204
0.0426334
0.00230393
-0.00425815
0.00274951
-0.00446815
-0.00425816
0.0111163
-0.00446815
0.0150576
-0.00446815
0.0150576
-0.00342143
0.00954204
0.055679
0.369543
0.229961
0.798681
0.369543
0.822185
0.798681
0.971546
0.798681
0.971546
0.942349
0.987225
0.229961
0.798681
0.491707
0.942349
-0.00437465
0.00524301
0.0038514
0.0261529
0.00524301
0.055679
0.0261529
0.229961
0.0261529
0.229961
0.0481766
0.491707
0.0038514
0.0261529
0.0111163
0.0481766
-0.000555471
0.000363005
0.000559518
0.000519435
0.000363005
-0.00437465
0.000519435
0.0038514
0.000519435
0.0038514
-0.00425816
0.0111163
0.000559518
0.000519435
0.00230393
-0.00425816
-0.00029329
0.00089412
-0.000102803
0.000737517
0.00089412
-0.000555471
0.000737517
0.000559518
0.000737517
0.000559518
-0.000765534
0.00230393
-0.000102803
0.000737517
0.000719228
-0.000765534
-1.50164e-05
2.19987e-05
1.01103e-05
-0.000206559
1.01103e-05
-0.000206559
2.21201e-05
-0.000103064
2.19987e-05
-0.00029329
-0.000206559
-0.000102803
-0.000206559
-0.000102803
-0.000103064
0.000719228
0.16418
0.751652
0.3472
0.869583
0.0327256
0.0265194
0.0125126
0.051118
0.0265194
0.16418
0.051118
0.3472
0.051118
0.3472
0.369543
0.822185
0.0125126
0.051118
0.055679
0.369543
0.00475455
0.0227491
0.00728297
0.00877069
0.0227491
0.0327256
0.00877069
0.0125126
0.00877069
0.0125126
0.00524301
0.055679
0.00728297
0.00877069
-0.00437465
0.005243
-0.000752578
0.00239682
0.000877622
0.000731789
0.00239682
0.00475455
0.000731789
0.00728297
0.000731789
0.00728297
0.000363005
-0.00437465
0.000877622
0.000731789
-0.000555471
0.000363005
1.28743e-05
0.000229654
4.87216e-05
-6.27608e-05
0.000229654
-0.000752578
-6.27608e-05
0.000877622
-6.27608e-05
0.000877622
0.00089412
-0.000555471
4.87216e-05
-6.27609e-05
-0.00029329
0.00089412
-7.899e-06
-0.00035577
-1.92912e-05
1.35262e-05
-1.92912e-05
1.35262e-05
-1.50164e-05
2.19986e-05
-0.00035577
1.28743e-05
1.35262e-05
4.87216e-05
1.35262e-05
4.87216e-05
2.19986e-05
-0.00029329
0.613635
0.475463
0.229477
0.099781
0.475463
0.507983
0.099781
0.264941
0.099781
0.264941
0.0265194
0.16418
0.229477
0.099781
0.0327256
0.0265194
0.437097
0.560907
0.203327
0.298523
0.560907
0.613635
0.298523
0.229477
0.298523
0.229477
0.0227491
0.0327256
0.203327
0.298523
0.00475455
0.0227491
0.0292095
0.179161
0.0113037
0.0548233
0.179161
0.437097
0.0548233
0.203327
0.0548233
0.203327
0.00239682
0.00475455
0.0113037
0.0548233
-0.000752578
0.00239682
-0.000653599
0.00258314
0.000534682
-0.00075715
0.00258314
0.0292095
-0.00075715
0.0113037
-0.00075715
0.0113037
0.000229654
-0.000752578
0.000534682
-0.00075715
1.28743e-05
0.000229654
6.02364e-06
7.11566e-05
4.6911e-06
0.00017053
4.6911e-06
0.00017053
-7.89901e-06
-0.00035577
7.11566e-05
-0.000653599
0.00017053
0.000534682
0.00017053
0.000534682
-0.00035577
1.28743e-05
0.800233
0.693381
0.791976
0.730415
0.730415
0.60928
0.475463
0.507983
0.791976
0.730415
0.613635
0.475463
0.66334
0.797006
0.586355
0.741576
0.797006
0.800233
0.741576
0.791976
0.741576
0.791976
0.560907
0.613635
0.586355
0.741576
0.437097
0.560907
0.0536195
0.336928
0.0572285
0.316704
0.336928
0.66334
0.316704
0.586355
0.316704
0.586355
0.179161
0.437097
0.0572285
0.316704
0.0292095
0.179161
-0.00272495
0.00766481
-0.00221659
0.00647358
0.0076648
0.0536195
0.00647358
0.0572285
0.00647358
0.0572285
0.00258314
0.0292095
-0.00221659
0.00647358
-0.000653599
0.00258314
-2.60029e-05
-0.000351834
-9.99313e-06
-0.000127279
-9.99313e-06
-0.000127279
6.02363e-06
7.11566e-05
-0.000351834
-0.00272495
-0.000127279
-0.00221659
-0.000127279
-0.00221659
7.11566e-05
-0.000653599
0.428363
0.57476
0.676352
0.637974
0.676352
0.637974
0.800233
0.693381
-9.77414e-06
-3.8702e-05
6.11123e-05
0.00051727
-3.8702e-05
-0.00040996
0.00051727
0.000814316
-0.00040996
0.00045668
0.000248935
0.000187431
0.000248935
0.000187431
0.000814316
-0.00164789
0.00045668
-0.00204807
0.000187431
0.00205135
0.000187431
0.00205135
-0.00164789
0.00144917
-0.00240915
0.0160449
-0.0071547
-0.00360565
0.00205135
-0.00240916
0.00144917
-0.0071547
0.0160449
0.0357249
-0.00360565
0.0879498
0.00848128
0.185996
0.523378
0.717114
0.185996
0.428363
0.717114
0.676352
0.717114
0.676352
0.797006
0.800233
0.523378
0.717114
0.66334
0.797006
-0.000646478
-0.0093653
0.0189559
0.153142
-0.00936529
0.00848128
0.153142
0.523378
0.153142
0.523378
0.336928
0.66334
0.0189559
0.153142
0.0536195
0.336928
0.000291329
-0.000102801
-0.000350324
0.00032974
-0.000102801
-0.000646478
0.00032974
0.0189559
0.00032974
0.0189559
0.00766481
0.0536195
-0.000350324
0.00032974
-0.00272495
0.00766481
2.87432e-06
-0.000170779
-2.27881e-05
0.000311721
-2.27881e-05
0.000311721
-2.60029e-05
-0.000351834
-0.000170779
0.000291329
0.000311721
-0.000350324
0.000311721
-0.000350324
-0.000351834
-0.00272495
6.11123e-05
0.00051727
4.30419e-05
-1.00046e-05
4.30419e-05
-1.00046e-05
2.87433e-06
-0.000170779
0.00051727
0.000814317
-1.00046e-05
0.000626595
-1.00046e-05
0.000626595
-0.000170779
0.000291329
0.000814316
-0.00164789
0.000626595
0.000228295
-0.00164789
0.00144917
0.000228295
0.00190549
0.000228295
0.00190549
-0.000102801
-0.000646478
0.000626595
0.000228295
0.000291329
-0.000102801
0.00144917
-0.0071547
0.00190549
0.00553101
-0.0071547
-0.00360565
0.00553101
0.0337086
0.00553101
0.0337086
-0.0093653
0.00848127
0.00190549
0.00553101
-0.000646478
-0.0093653
-0.00360565
0.0879498
0.0337086
0.0841757
0.0879498
0.517645
0.0841757
0.442416
0.0841757
0.442416
0.185996
0.428363
0.0337086
0.0841757
0.00848127
0.185996
1.00021
0.998953
1
1.00013
0.998953
0.999251
1.00013
1.0005
0.999251
0.999831
1.0005
1.00028
0.999831
0.999849
1.00028
0.999951
0.999849
0.999349
0.999951
1.00032
0.999349
0.998842
1.00032
1.00087
1.00011
0.999334
1.00027
0.999443
0.999334
1
0.999443
1.00032
1
1.00013
1.00032
1.00022
1.00013
1.0005
1.00022
0.999619
1.0005
1.00028
0.999619
0.999766
1.00028
0.999951
0.999766
1.0001
0.999951
1.00032
1.0001
0.999882
1.00032
1.00087
0.999882
0.999501
1.00091
1.0007
0.999446
0.999567
1.00027
0.999443
1.00017
0.999666
0.999443
1.00032
0.999666
0.999952
1.00032
0.999619
0.999952
1.00004
0.999619
1.0001
1.00004
0.999984
1.0001
0.999501
0.999984
1.00018
0.999501
0.999567
1.00018
1.00021
1.00017
0.999952
0.999371
0.999843
0.999952
1.00004
0.999843
1.00022
1.00004
0.999984
1.00022
1.00001
0.999984
1.00018
1.00001
0.999988
1.00018
1.00021
0.999988
1.00005
0.999371
0.999843
1.00009
0.999607
0.999843
1.00022
0.999607
0.999963
1.00022
1.00001
0.999963
0.999744
1.00001
0.999988
0.999744
0.999849
0.999607
0.999963
1.00005
1.00056
0.999963
0.999744
1.00056
1.00028
0.998739
1.00057
1.00449
0.998203
1.00057
1.00017
0.998203
0.999371
1.00049
0.998739
0.995776
1.00169
0.995776
1.00169
0.986735
1.00449
0.99805
0.999612
0.998334
1.00078
0.998334
1.00078
0.998739
1.00057
0.999612
1.00027
1.00078
1.00013
1.00078
1.00013
1.00057
1.00017
0.987225
1.00345
0.991578
1.00363
1.00345
0.99805
1.00363
0.998334
1.00363
0.998334
1.00049
0.998739
0.991578
1.00363
0.98539
1.00049
0.996545
1.00075
0.998807
0.999896
0.998807
0.999896
0.99805
0.999612
1.00075
1.00011
0.999896
1.00094
0.999896
1.00094
0.999612
1.00027
0.822185
0.969781
0.971546
0.996432
0.969781
0.996545
0.996432
0.998807
0.996432
0.998807
1.00345
0.99805
0.971546
0.996432
0.987225
1.00345
0.998911
1.00147
1.00011
0.999334
1.00147
1.00021
0.999334
1
0.975295
0.99887
0.983675
0.997793
0.983675
0.997793
0.996545
1.00075
0.99887
0.998911
0.997793
0.997111
0.997793
0.997111
1.00075
1.00011
0.751652
0.975295
0.869583
0.983675
0.869583
0.983675
0.969781
0.996545
0.3472
0.869583
0.822185
0.969781
0.999724
0.999023
0.999849
0.999349
0.999023
0.998518
0.999349
0.998842
0.999479
1
0.999251
0.999831
1
0.999724
0.999831
0.999849
0.99741
0.998177
1.00021
0.998953
0.998177
0.999479
0.998953
0.999251
0.971884
0.990726
1.00011
0.994112
1.00011
0.994112
0.998912
1.00147
0.990726
0.99741
0.994112
0.998152
0.994112
0.998152
1.00147
1.00021
0.835174
0.942453
0.947814
0.985528
0.942453
0.971884
0.985528
1.00011
0.985528
1.00011
0.99887
0.998911
0.947814
0.985528
0.975295
0.99887
0.507983
0.673339
0.264941
0.750711
0.673339
0.835174
0.750711
0.947814
0.750711
0.947814
0.751652
0.975295
0.264941
0.750711
0.16418
0.751652
0.986964
0.976719
0.998364
0.994649
0.994649
0.991606
0.999023
0.998518
0.998364
0.994649
0.999724
0.999023
0.980193
0.988348
0.996094
0.999073
0.988348
0.986964
0.999073
0.998364
0.999073
0.998364
1
0.999724
0.996094
0.999073
0.999479
1
0.733744
0.922639
0.973828
0.988887
0.922639
0.980193
0.988887
0.996094
0.988887
0.996094
0.998177
0.999479
0.973828
0.988887
0.99741
0.998177
0.330786
0.428855
0.852176
0.911614
0.428855
0.733744
0.911614
0.973828
0.911614
0.973828
0.990726
0.99741
0.852176
0.911614
0.971884
0.990726
0.490465
0.418875
0.629106
0.78767
0.418875
0.330786
0.78767
0.852176
0.78767
0.852176
0.942453
0.971884
0.629106
0.78767
0.835174
0.942453
0.608121
0.57559
0.60928
0.5454
0.57559
0.490465
0.5454
0.629106
0.5454
0.629106
0.673339
0.835174
0.60928
0.5454
0.507983
0.673339
0.693381
0.608121
0.730415
0.60928
0.0259108
0.137699
0.211484
0.438997
0.211484
0.438997
0.521279
0.523556
-0.0112281
0.211484
0.0848787
0.521279
0.137698
0.176927
0.438997
0.462621
0.176927
0.0850937
0.462621
0.333832
0.462621
0.333832
0.543525
0.495351
0.438997
0.462621
0.523556
0.543525
0.333832
0.152811
0.495351
0.382706
0.755281
0.633102
0.986964
0.976719
0.0980153
0.148244
0.68194
0.783427
0.783427
0.755281
0.988348
0.986964
0.68194
0.783427
0.980193
0.988348
0.0166782
0.0340649
0.159951
0.416824
0.0340649
0.0980153
0.416824
0.68194
0.416824
0.68194
0.922639
0.980193
0.159951
0.416824
0.733744
0.922639
0.0102332
0.00921083
0.0457162
0.0451026
0.00921084
0.0166781
0.0451026
0.159951
0.0451026
0.159951
0.428855
0.733744
0.0457162
0.0451026
0.330786
0.428855
0.291826
0.0488353
0.328981
0.107659
0.0488353
0.0102332
0.107659
0.0457162
0.107659
0.0457162
0.418875
0.330786
0.328981
0.107659
0.490465
0.418875
0.696738
0.695099
0.666696
0.660912
0.695099
0.291826
0.660912
0.328981
0.660912
0.328981
0.57559
0.490465
0.666696
0.660912
0.608121
0.57559
0.57476
0.696738
0.637974
0.666696
0.637974
0.666696
0.693381
0.608121
0.0357249
0.40968
0.0879498
0.517645
0.0848787
0.521279
0.40968
0.647558
0.521279
0.523556
0.647558
0.587786
0.647558
0.587785
0.589032
0.586715
0.40968
0.647558
0.517645
0.589032
0.523556
0.543525
0.587785
0.591823
0.543525