# vtk DataFile Version 2.0
Hex test
ASCII
DATASET UNSTRUCTURED_GRID
POINTS 10560 float
40 -2 0
40 -1 0
42 -2 0
42 -1 0
40 -1 0
40 6.93889e-18 0
42 -1 0
42 0 0
40 0 0
40 1 0
42 0 0
42 1 0
40 1 0
40 2 0
42 1 0
42 2 0
40 2 0
40 3 0
42 2 0
42 3 0
40 3 0
40 4 0
42 3 0
42 4 0
42 -8 0
42 -6 0
44 -8 0
44 -6 0
42 -6 0
42 -4 0
44 -6 0
44 -4 0
42 -4 0
42 -3 0
44 -4 0
44 -3 0
42 -3 0
42 -2 0
44 -3 0
44 -2 0
42 -2 0
42 -1 0
44 -2 0
44 -1 0
42 -1 0
42 -2.77556e-17 0
44 -1 0
44 -2.77556e-17 0
42 1.38778e-17 0
42 1 0
44 2.77556e-17 0
44 1 0
42 1 0
42 2 0
44 1 0
44 2 0
42 2 0
42 3 0
44 2 0
44 3 0
42 3 0
42 4 0
44 3 0
44 4 0
44 -18 0
44 -14.1667 0
46 -18 0
46 -14.1667 0
44 -14.1667 0
44 -12 0
46 -14.1667 0
46 -12 0
44 -12 0
44 -10 0
46 -12 0
46 -10 0
44 -10 0
44 -8 0
46 -10 0
46 -8 0
44 -8 0
44 -6 0
46 -8 0
46 -6 0
44 -6 0
44 -4 0
46 -6 0
46 -4 0
44 -4 0
44 -2 0
46 -4 0
46 -2 0
44 -2 0
44 -2.77556e-17 0
46 -2 0
46 -2.77556e-17 0
44 2.77556e-17 0
44 2 0
46 2.77556e-17 0
46 2 0
44 2 0
44 4 0
46 2 0
46 4 0
46 -18 0
46 -14.1667 0
48 -18 0
48 -14.1667 0
46 -14.1667 0
46 -12 0
48 -14.1667 0
48 -12 0
46 -12 0
46 -10 0
48 -12 0
48 -10 0
46 -10 0
46 -8 0
48 -10 0
48 -8 0
46 -8 0
46 -6 0
48 -8 0
48 -6 0
46 -6 0
46 -4 0
48 -6 0
48 -4 0
46 -4 0
46 -2 0
48 -4 0
48 -2 0
46 -2 0
46 -2.77556e-17 0
48 -2 0
48 -2.77556e-17 0
46 2.77556e-17 0
46 2 0
48 2.77556e-17 0
48 2 0
46 2 0
46 4 0
48 2 0
48 4 0
46 4 0
46 5 0
48 4 0
48 5 0
46 5 0
46 6 0
48 5 0
48 6 0
48 -18 0
48 -14.1667 0
50 -18 0
50 -14.1667 0
48 -14.1667 0
48 -12 0
50 -14.1667 0
50 -12 0
48 -12 0
48 -10 0
50 -12 0
50 -10 0
48 -10 0
48 -8 0
50 -10 0
50 -8 0
48 -8 0
48 -6 0
50 -8 0
50 -6 0
48 -6 0
48 -4 0
50 -6 0
50 -4 0
48 -4 0
48 -2 0
50 -4 0
50 -2 0
48 -2 0
48 -2.77556e-17 0
50 -2 0
50 -2.77556e-17 0
48 2.77556e-17 0
48 2 0
50 2.77556e-17 0
50 2 0
48 2 0
48 4 0
50 2 0
50 4 0
48 4 0
48 5 0
50 4 0
50 5 0
48 5 0
48 6 0
50 5 0
50 6 0
48 6 0
48 7 0
50 6 0
50 7 0
48 7 0
48 8 0
50 7 0
50 8 0
48 8 0
48 9 0
50 8 0
50 9 0
48 9 0
48 10 0
50 9 0
50 10 0
50 -18 0
50 -14.1667 0
52 -18 0
52 -14.1667 0
50 -14.1667 0
50 -12 0
52 -14.1667 0
52 -12 0
50 -12 0
50 -10 0
52 -12 0
52 -10 0
50 -10 0
50 -8 0
52 -10 0
52 -8 0
50 -8 0
50 -6 0
52 -8 0
52 -6 0
50 -6 0
50 -4 0
52 -6 0
52 -4 0
50 -4 0
50 -2 0
52 -4 0
52 -2 0
50 -2 0
50 -2.77556e-17 0
52 -2 0
52 -2.77556e-17 0
50 2.77556e-17 0
50 2 0
52 2.77556e-17 0
52 2 0
50 2 0
50 4 0
52 2 0
52 4 0
50 4 0
50 6 0
52 4 0
52 6 0
50 6 0
50 7 0
52 6 0
52 7 0
50 7 0
50 8 0
52 7 0
52 8 0
52 -18 0
52 -14.1667 0
54 -18 0
54 -14.1667 0
52 -14.1667 0
52 -12 0
54 -14.1667 0
54 -12 0
52 -12 0
52 -10 0
54 -12 0
54 -10 0
52 -10 0
52 -8 0
54 -10 0
54 -8 0
52 -8 0
52 -6 0
54 -8 0
54 -6 0
52 -6 0
52 -4 0
54 -6 0
54 -4 0
52 -4 0
52 -2 0
54 -4 0
54 -2 0
52 -2 0
52 -2.77556e-17 0
54 -2 0
54 -2.77556e-17 0
52 2.77556e-17 0
52 2 0
54 2.77556e-17 0
54 2 0
52 2 0
52 4 0
54 2 0
54 4 0
52 4 0
52 6 0
54 4 0
54 6 0
52 6 0
52 8 0
54 6 0
54 8 0
52 8 0
52 10 0
54 8 0
54 10 0
54 -18 0
54 -14.1667 0
56.1667 -18 0
56.1667 -14.1667 0
54 -14.1667 0
54 -12 0
56.1667 -14.1667 0
56.1667 -12 0
54 -12 0
54 -10 0
56.1667 -12 0
56.1667 -10 0
54 -10 0
54 -8 0
56.1667 -10 0
56.1667 -8 0
54 -8 0
54 -6 0
56.1667 -8 0
56.1667 -6 0
54 -6 0
54 -4 0
56.1667 -6 0
56.1667 -4 0
54 -4 0
54 -2 0
56.1667 -4 0
56.1667 -2 0
54 -2 0
54 -2.77556e-17 0
56.1667 -2 0
56.1667 0 0
54 2.77556e-17 0
54 2 0
56.1667 0 0
56.1667 2 0
54 2 0
54 4 0
56.1667 2 0
56.1667 4 0
54 4 0
54 6 0
56.1667 4 0
56.1667 6 0
56.1667 -18 0
56.1667 -14.1667 0
60 -18 0
60 -14.1667 0
56.1667 -14.1667 0
56.1667 -12 0
60 -14.1667 0
60 -12 0
56.1667 -12 0
56.1667 -10 0
60 -12 0
60 -10 0
56.1667 -10 0
56.1667 -8 0
60 -10 0
60 -8 0
56.1667 -8 0
56.1667 -6 0
60 -8 0
60 -6 0
56.1667 -6 0
56.1667 -4 0
60 -6 0
60 -4 0
56.1667 -4 0
56.1667 -2 0
60 -4 0
60 -2 0
56.1667 -2 0
56.1667 6.93889e-17 0
60 -2 0
60 0 0
56.1667 -1.38778e-17 0
56.1667 2 0
60 0 0
60 2 0
56.1667 2 0
56.1667 4 0
60 2 0
60 4 0
56.1667 4 0
56.1667 6 0
60 4 0
60 6 0
46 8 0
46 9 0
48 8 0
48 9 0
46 9 0
46 10 0
48 9 0
48 10 0
46 6 0
46 7 0
48 6 0
48 7 0
46 7 0
46 8 0
48 7 0
48 8 0
44 10 0
44 11 0
45 10 0
45 11 0
44 8 0
44 9 0
45 8 0
45 9 0
44 9 0
44 10 0
45 9 0
45 10 0
45 9 0
45 10 0
46 9 0
46 10 0
45 8 0
45 9 0
46 8 0
46 9 0
44 6 0
44 7 0
45 6 0
45 7 0
45 6 0
45 7 0
46 6 0
46 7 0
44 7 0
44 8 0
45 7 0
45 8 0
45 7 0
45 8 0
46 7 0
46 8 0
44 4 0
44 5 0
46 4 0
46 5 0
44 5 0
44 6 0
46 5 0
46 6 0
42 10 0
42 11 0
43 10 0
43 11 0
43 10 0
43 11 0
44 10 0
44 11 0
42 8 0
42 9 0
43 8 0
43 9 0
42 9 0
42 10 0
43 9 0
43 10 0
43 9 0
43 10 0
44 9 0
44 10 0
43 8 0
43 9 0
44 8 0
44 9 0
42 6 0
42 7 0
43 6 0
43 7 0
42 7 0
42 8 0
43 7 0
43 8 0
43 7 0
43 8 0
44 7 0
44 8 0
43 6 0
43 7 0
44 6 0
44 7 0
42 4 0
42 5 0
43 4 0
43 5 0
43 4 0
43 5 0
44 4 0
44 5 0
42 5 0
42 6 0
43 5 0
43 6 0
43 5 0
43 6 0
44 5 0
44 6 0
40 8 0
40 9 0
41 8 0
41 9 0
40 9 0
40 10 0
41 9 0
41 10 0
41 9 0
41 10 0
42 9 0
42 10 0
41 8 0
41 9 0
42 8 0
42 9 0
40 6 0
40 7 0
41 6 0
41 7 0
40 7 0
40 8 0
41 7 0
41 8 0
41 7 0
41 8 0
42 7 0
42 8 0
41 6 0
41 7 0
42 6 0
42 7 0
40 4 0
40 5 0
41 4 0
41 5 0
41 4 0
41 5 0
42 4 0
42 5 0
40 5 0
40 6 0
41 5 0
41 6 0
41 5 0
41 6 0
42 5 0
42 6 0
38 8 0
38 9 0
39 8 0
39 9 0
39 8 0
39 9 0
40 8 0
40 9 0
38 6 0
38 7 0
39 6 0
39 7 0
38 7 0
38 8 0
39 7 0
39 8 0
39 7 0
39 8 0
40 7 0
40 8 0
39 6 0
39 7 0
40 6 0
40 7 0
38 4 0
38 5 0
39 4 0
39 5 0
39 4 0
39 5 0
40 4 0
40 5 0
38 5 0
38 6 0
39 5 0
39 6 0
39 5 0
39 6 0
40 5 0
40 6 0
38 2 0
38 3 0
40 2 0
40 3 0
38 3 0
38 4 0
40 3 0
40 4 0
38 0 0
38 1 0
40 0 0
40 1 0
38 1 0
38 2 0
40 1 0
40 2 0
38 -1 0
38 0 0
40 -1 0
40 0 0
36 6 0
36 7 0
37 6 0
37 7 0
37 7 0
37 8 0
38 7 0
38 8 0
37 6 0
37 7 0
38 6 0
38 7 0
36 4 0
36 5 0
37 4 0
37 5 0
36 5 0
36 6 0
37 5 0
37 6 0
37 5 0
37 6 0
38 5 0
38 6 0
37 4 0
37 5 0
38 4 0
38 5 0
36 3 0
36 4 0
37 3 0
37 4 0
37 3 0
37 4 0
38 3 0
38 4 0
37 2 0
37 3 0
38 2 0
38 3 0
37 1 0
37 2 0
38 1 0
38 2 0
26 -18 0
26 -14.1667 0
28 -18 0
28 -14.1667 0
26 -14.1667 0
26 -12 0
28 -14.1667 0
28 -12 0
26 -12 0
26 -10 0
28 -12 0
28 -10 0
26 -10 0
26 -8 0
28 -10 0
28 -8 0
26 -8 0
26 -6 0
28 -8 0
28 -6 0
26 -6 0
26 -4 0
28 -6 0
28 -4 0
28 -18 0
28 -14.1667 0
30 -18 0
30 -14.1667 0
28 -14.1667 0
28 -12 0
30 -14.1667 0
30 -12 0
28 -12 0
28 -10 0
30 -12 0
30 -10 0
28 -10 0
28 -8 0
30 -10 0
30 -8 0
28 -8 0
28 -6 0
30 -8 0
30 -6 0
28 -6 0
28 -4 0
30 -6 0
30 -4 0
30 -18 0
30 -14.1667 0
32 -18 0
32 -14.1667 0
30 -14.1667 0
30 -12 0
32 -14.1667 0
32 -12 0
30 -12 0
30 -10 0
32 -12 0
32 -10 0
30 -10 0
30 -8 0
32 -10 0
32 -8 0
30 -8 0
30 -6 0
32 -8 0
32 -6 0
30 -6 0
30 -4 0
32 -6 0
32 -4 0
32 -18 0
32 -14.1667 0
34 -18 0
34 -14.1667 0
32 -14.1667 0
32 -12 0
34 -14.1667 0
34 -12 0
32 -12 0
32 -10 0
34 -12 0
34 -10 0
32 -10 0
32 -8 0
34 -10 0
34 -8 0
32 -8 0
32 -6 0
34 -8 0
34 -6 0
32 -6 0
32 -4 0
34 -6 0
34 -4 0
34 -18 0
34 -14.1667 0
36 -18 0
36 -14.1667 0
34 -14.1667 0
34 -12 0
36 -14.1667 0
36 -12 0
34 -12 0
34 -10 0
36 -12 0
36 -10 0
34 -10 0
34 -8 0
36 -10 0
36 -8 0
34 -8 0
34 -6 0
36 -8 0
36 -6 0
34 -6 0
34 -4 0
36 -6 0
36 -4 0
36 -18 0
36 -14.1667 0
38 -18 0
38 -14.1667 0
36 -14.1667 0
36 -12 0
38 -14.1667 0
38 -12 0
36 -12 0
36 -10 0
38 -12 0
38 -10 0
36 -10 0
36 -8 0
38 -10 0
38 -8 0
36 -8 0
36 -6 0
38 -8 0
38 -6 0
36 -6 0
36 -4 0
38 -6 0
38 -4 0
38 -18 0
38 -14.1667 0
40 -18 0
40 -14.1667 0
38 -14.1667 0
38 -12 0
40 -14.1667 0
40 -12 0
38 -12 0
38 -10 0
40 -12 0
40 -10 0
38 -10 0
38 -8 0
40 -10 0
40 -8 0
38 -8 0
38 -6 0
40 -8 0
40 -6 0
38 -6 0
38 -4 0
40 -6 0
40 -4 0
40 -18 0
40 -14.1667 0
42 -18 0
42 -14.1667 0
40 -14.1667 0
40 -12 0
42 -14.1667 0
42 -12 0
40 -12 0
40 -10 0
42 -12 0
42 -10 0
40 -10 0
40 -8 0
42 -10 0
42 -8 0
40 -8 0
40 -6 0
42 -8 0
42 -6 0
40 -6 0
40 -4 0
42 -6 0
42 -4 0
40 -4 0
40 -3 0
42 -4 0
42 -3 0
40 -3 0
40 -2 0
42 -3 0
42 -2 0
42 -18 0
42 -14.1667 0
44 -18 0
44 -14.1667 0
42 -14.1667 0
42 -12 0
44 -14.1667 0
44 -12 0
42 -12 0
42 -10 0
44 -12 0
44 -10 0
42 -10 0
42 -8 0
44 -10 0
44 -8 0
38 -2 0
38 -1 0
40 -2 0
40 -1 0
38 -4 0
38 -3 0
40 -4 0
40 -3 0
38 -3 0
38 -2 0
40 -3 0
40 -2 0
36 2 0
36 3 0
37 2 0
37 3 0
36 1.38778e-17 0
36 1 0
37 0 0
37 1 0
36 1 0
36 2 0
37 1 0
37 2 0
37 -3.1225e-17 0
37 1 0
38 1.38778e-17 0
38 1 0
36 -2 0
36 -1 0
37 -2 0
37 -1 0
36 -1 0
36 -2.77556e-17 0
37 -1 0
37 0 0
37 -1 0
37 3.1225e-17 0
38 -1 0
38 -1.38778e-17 0
37 -2 0
37 -1 0
38 -2 0
38 -1 0
36 -4 0
36 -3 0
37 -4 0
37 -3 0
37 -4 0
37 -3 0
38 -4 0
38 -3 0
36 -3 0
36 -2 0
37 -3 0
37 -2 0
37 -3 0
37 -2 0
38 -3 0
38 -2 0
34 6 0
34 7 0
35 6 0
35 7 0
35 6 0
35 7 0
36 6 0
36 7 0
34 4 0
34 5 0
35 4 0
35 5 0
34 5 0
34 6 0
35 5 0
35 6 0
35 5 0
35 6 0
36 5 0
36 6 0
35 4 0
35 5 0
36 4 0
36 5 0
34 2 0
34 3 0
35 2 0
35 3 0
34 3 0
34 4 0
35 3 0
35 4 0
35 3 0
35 4 0
36 3 0
36 4 0
35 2 0
35 3 0
36 2 0
36 3 0
34 1.38778e-17 0
34 1 0
35 1.38778e-17 0
35 1 0
34 1 0
34 2 0
35 1 0
35 2 0
35 1 0
35 2 0
36 1 0
36 2 0
35 1.38778e-17 0
35 1 0
36 1.38778e-17 0
36 1 0
34 -2 0
34 -1 0
35 -2 0
35 -1 0
34 -1 0
34 -2.77556e-17 0
35 -1 0
35 -1.38778e-17 0
35 -1 0
35 -1.38778e-17 0
36 -1 0
36 -1.38778e-17 0
35 -2 0
35 -1 0
36 -2 0
36 -1 0
34 -4 0
34 -3 0
35 -4 0
35 -3 0
35 -4 0
35 -3 0
36 -4 0
36 -3 0
34 -3 0
34 -2 0
35 -3 0
35 -2 0
35 -3 0
35 -2 0
36 -3 0
36 -2 0
32 6 0
32 7 0
33 6 0
33 7 0
32 7 0
32 8 0
33 7 0
33 8 0
33 6 0
33 7 0
34 6 0
34 7 0
32 4 0
32 5 0
33 4 0
33 5 0
32 5 0
32 6 0
33 5 0
33 6 0
33 5 0
33 6 0
34 5 0
34 6 0
33 4 0
33 5 0
34 4 0
34 5 0
32 2 0
32 3 0
33 2 0
33 3 0
32 3 0
32 4 0
33 3 0
33 4 0
33 3 0
33 4 0
34 3 0
34 4 0
33 2 0
33 3 0
34 2 0
34 3 0
32 1.38778e-17 0
32 1 0
33 1.38778e-17 0
33 1 0
32 1 0
32 2 0
33 1 0
33 2 0
33 1 0
33 2 0
34 1 0
34 2 0
33 1.38778e-17 0
33 1 0
34 1.38778e-17 0
34 1 0
32 -2 0
32 -1 0
33 -2 0
33 -1 0
32 -1 0
32 -2.77556e-17 0
33 -1 0
33 -1.38778e-17 0
33 -1 0
33 -1.38778e-17 0
34 -1 0
34 -1.38778e-17 0
33 -2 0
33 -1 0
34 -2 0
34 -1 0
32 -4 0
32 -3 0
33 -4 0
33 -3 0
33 -4 0
33 -3 0
34 -4 0
34 -3 0
32 -3 0
32 -2 0
33 -3 0
33 -2 0
33 -3 0
33 -2 0
34 -3 0
34 -2 0
30 8 0
30 9 0
31 8 0
31 9 0
30 6 0
30 7 0
31 6 0
31 7 0
30 7 0
30 8 0
31 7 0
31 8 0
31 7 0
31 8 0
32 7 0
[...]
POINT_DATA 10560
SCALARS phi float 1
LOOKUP_TABLE default
6.15055e-06
-2.46782e-05
1.18728e-05
2.38364e-05
-2.46782e-05
-1.5966e-05
2.38364e-05
4.6486e-05
-1.5966e-05
2.49049e-05
4.6486e-05
-5.03699e-05
2.49049e-05
6.17105e-05
-5.03699e-05
-3.21343e-05
6.17105e-05
-0.000102879
-3.21343e-05
0.000183447
-0.000102879
-0.000431702
0.000183447
3.26082e-05
5.93001e-07
-1.75189e-06
-3.58635e-07
6.7676e-07
-1.75189e-06
4.87027e-06
6.7676e-07
-1.1185e-06
4.87027e-06
1.07111e-05
-1.1185e-06
2.0557e-06
1.07111e-05
1.18728e-05
2.0557e-06
-5.95319e-07
1.18728e-05
2.38364e-05
-5.95319e-07
-1.36621e-05
2.38364e-05
4.6486e-05
-1.36621e-05
-1.26848e-05
4.6486e-05
-5.037e-05
-1.26848e-05
1.75306e-05
-5.037e-05
-3.21343e-05
1.75306e-05
2.60615e-05
-3.21343e-05
0.000183447
2.60615e-05
-1.88839e-05
0.000183447
3.26081e-05
-1.88839e-05
-6.46919e-06
8.30371e-08
7.78246e-08
-1.58e-08
-1.22844e-08
7.78246e-08
-1.19518e-07
-1.22844e-08
1.96168e-08
-1.19518e-07
1.99345e-07
1.96169e-08
-3.28609e-08
1.99345e-07
-3.58635e-07
-3.28609e-08
5.99374e-08
-3.58635e-07
6.7676e-07
5.99374e-08
-1.07125e-07
6.7676e-07
-1.1185e-06
-1.07125e-07
1.2445e-07
-1.1185e-06
-5.95321e-07
1.2445e-07
1.19981e-06
-5.9532e-07
-1.26848e-05
1.19982e-06
5.05777e-06
-1.26848e-05
2.60615e-05
5.05778e-06
-7.2795e-06
2.60615e-05
-6.46918e-06
-7.2795e-06
8.93795e-06
-1.58e-08
-1.22844e-08
-5.54689e-08
-5.51143e-08
-1.22844e-08
1.96168e-08
-5.51143e-08
9.0253e-08
1.96169e-08
-3.28609e-08
9.0253e-08
-1.54171e-07
-3.28609e-08
5.99374e-08
-1.54171e-07
2.80848e-07
5.99374e-08
-1.07125e-07
2.80848e-07
-5.23622e-07
-1.07125e-07
1.2445e-07
-5.23622e-07
1.01914e-06
1.2445e-07
1.19981e-06
1.01914e-06
-2.66684e-06
1.19982e-06
5.05778e-06
-2.66684e-06
1.10361e-06
5.05778e-06
-7.2795e-06
1.10361e-06
-2.51608e-06
-7.2795e-06
8.93795e-06
-2.51608e-06
-1.49069e-06
8.93795e-06
-3.21184e-05
-1.49068e-06
-1.52917e-05
-3.21184e-05
4.1173e-06
-1.52917e-05
8.9271e-06
-5.54689e-08
-5.51142e-08
1.98054e-08
1.96206e-08
-5.51143e-08
9.0253e-08
1.96206e-08
-3.20594e-08
9.0253e-08
-1.54171e-07
-3.20594e-08
5.48766e-08
-1.54171e-07
2.80848e-07
5.48766e-08
-1.00566e-07
2.80848e-07
-5.23622e-07
-1.00566e-07
1.89228e-07
-5.23622e-07
1.01914e-06
1.89228e-07
-3.7604e-07
1.01914e-06
-2.66684e-06
-3.7604e-07
1.11231e-06
-2.66684e-06
1.10361e-06
1.11231e-06
-4.45505e-08
1.10361e-06
-2.51608e-06
-4.45505e-08
4.60861e-07
-2.51608e-06
-1.49069e-06
4.60861e-07
-1.26124e-06
-1.49069e-06
-1.52917e-05
-1.26124e-06
-7.092e-07
-1.52917e-05
8.9271e-06
-7.092e-07
-2.91694e-06
8.9271e-06
-2.81325e-05
-2.91694e-06
-8.22103e-06
-2.81325e-05
-2.14425e-05
-8.22103e-06
-1.05708e-05
-2.14425e-05
-2.07009e-05
-1.05708e-05
-2.27627e-05
-2.07009e-05
1.95519e-05
-2.27627e-05
-2.18539e-06
1.98054e-08
1.96206e-08
-7.32304e-09
-7.21241e-09
1.96206e-08
-3.20594e-08
-7.21241e-09
1.17403e-08
-3.20594e-08
5.48766e-08
1.17403e-08
-2.02026e-08
5.48766e-08
-1.00566e-07
-2.02026e-08
3.69886e-08
-1.00566e-07
1.89228e-07
3.69887e-08
-6.96434e-08
1.89228e-07
-3.7604e-07
-6.96433e-08
1.42265e-07
-3.7604e-07
1.11231e-06
1.42265e-07
-4.8725e-07
1.11231e-06
-4.45504e-08
-4.8725e-07
-1.88632e-07
-4.45505e-08
4.60861e-07
-1.88632e-07
1.49148e-07
4.60861e-07
-1.26124e-06
1.49148e-07
-4.65631e-07
-1.26124e-06
-2.91694e-06
-4.65631e-07
1.32381e-06
-2.91694e-06
-8.22103e-06
1.32381e-06
4.86581e-07
-8.22103e-06
-1.05708e-05
4.86581e-07
-4.08996e-07
-7.32304e-09
-7.21241e-09
4.41001e-09
4.32891e-09
-7.21241e-09
1.17403e-08
4.32891e-09
-7.06081e-09
1.17403e-08
-2.02026e-08
-7.06081e-09
1.21405e-08
-2.02026e-08
3.69887e-08
1.21405e-08
-2.22792e-08
3.69886e-08
-6.96433e-08
-2.22792e-08
4.19561e-08
-6.96433e-08
1.42265e-07
4.19561e-08
-8.54782e-08
1.42265e-07
-4.8725e-07
-8.54783e-08
2.89237e-07
-4.8725e-07
-1.88632e-07
2.89237e-07
9.53956e-08
-1.88632e-07
1.49148e-07
9.53957e-08
-6.54066e-08
1.49148e-07
-4.65631e-07
-6.54066e-08
2.31737e-07
-4.65631e-07
1.32381e-06
2.31737e-07
-6.32945e-07
1.32381e-06
-4.08996e-07
-6.32945e-07
-1.60733e-07
-4.08996e-07
-5.63716e-06
-1.60733e-07
1.32873e-06
4.41001e-09
4.32891e-09
-2.71068e-09
-2.659e-09
4.32891e-09
-7.06081e-09
-2.659e-09
4.3362e-09
-7.06081e-09
1.21405e-08
4.3362e-09
-7.47527e-09
1.21405e-08
-2.22792e-08
-7.47528e-09
1.36431e-08
-2.22792e-08
4.19561e-08
1.36431e-08
-2.59251e-08
4.1956e-08
-8.54782e-08
-2.59251e-08
5.28907e-08
-8.54783e-08
2.89237e-07
5.28907e-08
-1.79391e-07
2.89237e-07
9.53956e-08
-1.79391e-07
-5.52552e-08
9.53957e-08
-6.54066e-08
-5.52552e-08
3.46754e-08
-6.54066e-08
2.31737e-07
3.46754e-08
-1.35339e-07
2.31737e-07
-6.32945e-07
-1.35338e-07
3.77737e-07
-2.71068e-09
-2.659e-09
-2.5464e-09
-2.39737e-09
-2.659e-09
4.3362e-09
-2.39737e-09
3.90541e-09
4.3362e-09
-7.47527e-09
3.90541e-09
-6.74054e-09
-7.47527e-09
1.36431e-08
-6.74054e-09
1.24738e-08
1.36431e-08
-2.59251e-08
1.24738e-08
-2.35505e-08
-2.59251e-08
5.28907e-08
-2.35505e-08
4.80527e-08
5.28907e-08
-1.79391e-07
4.80527e-08
-1.63961e-07
-1.79391e-07
-5.52552e-08
-1.63961e-07
-3.75118e-08
-5.52552e-08
3.46755e-08
-3.75118e-08
2.31712e-08
3.46754e-08
-1.35339e-07
2.31712e-08
-1.4587e-07
-1.35339e-07
3.77737e-07
-1.4587e-07
3.38624e-07
-1.01463e-06
-1.03903e-05
-2.14425e-05
-2.07009e-05
-1.03903e-05
5.77383e-06
-2.07009e-05
1.95519e-05
4.1173e-06
1.3454e-06
8.9271e-06
-2.81325e-05
1.3454e-06
-1.01463e-06
-2.81325e-05
-2.14425e-05
7.39567e-05
0.00163312
-5.36013e-05
-0.00094876
-1.54402e-05
-4.8799e-05
1.10594e-06
-6.0407e-05
-4.8799e-05
7.39567e-05
-6.0407e-05
-5.36013e-05
-6.0407e-05
-5.36013e-05
-1.03903e-05
5.77382e-06
1.10594e-06
-6.0407e-05
-1.01463e-06
-1.03903e-05
-1.11825e-05
1.64322e-05
-4.46332e-05
3.01593e-05
-4.46332e-05
3.01593e-05
4.11731e-06
1.3454e-06
1.64322e-05
-1.54403e-05
3.01593e-05
1.10594e-06
3.01593e-05
1.10594e-06
1.3454e-06
-1.01463e-06
-6.46919e-06
8.2832e-05
8.93795e-06
-3.21184e-05
8.2832e-05
-1.11825e-05
-3.21184e-05
4.1173e-06
0.00173848
0.0114929
-0.000202133
-0.00380055
-0.000202133
-0.00380055
7.39567e-05
0.00163312
-0.000249507
0.000309982
3.03326e-05
-2.89342e-05
0.000309982
0.00173848
-2.89342e-05
-0.000202133
-2.89342e-05
-0.000202133
-4.8799e-05
7.39567e-05
3.03326e-05
-2.89342e-05
-1.54402e-05
-4.8799e-05
-5.98355e-05
-0.00029817
7.74746e-05
-2.74022e-05
-0.00029817
-0.000249507
-2.74022e-05
3.03326e-05
-2.74022e-05
3.03326e-05
1.64322e-05
-1.54402e-05
7.74746e-05
-2.74022e-05
-1.11825e-05
1.64322e-05
3.26082e-05
-6.30104e-05
7.12372e-05
-8.01469e-05
7.12372e-05
-8.01469e-05
-6.46919e-06
8.28321e-05
-6.30104e-05
-5.98355e-05
-8.01469e-05
7.74746e-05
-8.01469e-05
7.74746e-05
8.2832e-05
-1.11825e-05
0.00185501
0.0247458
-0.000225247
0.0051432
0.0247458
0.108638
0.0051432
0.0176632
0.0051432
0.0176632
0.000309982
0.00173848
-0.000225247
0.0051432
-0.000249507
0.000309982
-0.00128544
-0.000749723
-0.000171278
-0.000234626
-0.000749723
0.00185501
-0.000234626
-0.000225247
-0.000234626
-0.000225247
-0.00029817
-0.000249507
-0.000171278
-0.000234626
-5.98355e-05
-0.00029817
-0.000431702
-0.000863257
-0.000244928
0.000299386
-0.000244928
0.000299386
3.26081e-05
-6.30104e-05
-0.000863257
-0.00128544
0.000299386
-0.000171278
0.000299386
-0.000171278
-6.30104e-05
-5.98355e-05
0.016232
0.122625
0.010561
0.0698159
0.010561
0.0698159
0.00185501
0.0247458
-0.000211726
-0.00377573
6.90589e-05
-0.00343971
-0.00377573
0.016232
-0.00343971
0.010561
-0.00343971
0.010561
-0.000749723
0.00185501
6.90589e-05
-0.00343971
-0.00128544
-0.000749723
0.00035872
-0.000847585
-0.000194893
-0.00279899
-0.000194893
-0.00279899
-0.000431702
-0.000863257
-0.000847585
-0.000211726
-0.00279899
6.9059e-05
-0.00279899
6.9059e-05
-0.000863257
-0.00128544
9.44584e-05
-0.000109485
6.17105e-05
-0.000102879
-0.000109485
0.00035872
-0.000102879
-0.000431702
-2.17924e-05
-6.27135e-05
-1.5966e-05
2.49049e-05
-6.27135e-05
9.44583e-05
2.49049e-05
6.17105e-05
-7.08059e-05
-2.17924e-05
-2.46782e-05
-1.5966e-05
-0.00312667
-0.000701825
0.00278274
-0.00113119
-0.00113119
0.0116296
-0.00377573
0.016232
0.00278274
-0.00113119
-0.000211727
-0.00377573
-5.57836e-05
-0.00670725
0.000567686
0.00286806
-0.00670725
-0.00312667
0.00286806
0.00278274
0.00286806
0.00278274
-0.000847585
-0.000211727
0.000567686
0.00286806
0.00035872
-0.000847585
-0.000187542
-5.57833e-05
6.62426e-06
0.000567687
6.62425e-06
0.000567687
-0.000109485
0.00035872
0.000166306
6.62425e-06
9.44584e-05
-0.000109485
-9.59949e-05
0.000166306
-6.27135e-05
9.44584e-05
-1.84238e-07
-1.71795e-07
9.90569e-07
1.15003e-06
-1.71796e-07
3.13231e-07
1.15003e-06
-2.01443e-06
3.13231e-07
-5.5832e-07
-2.01443e-06
3.58765e-06
-5.58319e-07
1.18446e-06
3.58765e-06
-6.74512e-06
1.18446e-06
5.34612e-07
-6.74512e-06
5.57412e-06
5.34611e-07
-3.31299e-06
5.57412e-06
1.95467e-06
9.90569e-07
1.15003e-06
1.36718e-05
1.35641e-05
1.15002e-06
-2.01443e-06
1.35641e-05
-2.22545e-05
-2.01443e-06
3.58765e-06
-2.22545e-05
3.87578e-05
3.58765e-06
-6.74512e-06
3.87578e-05
-7.01711e-05
-6.74512e-06
5.57412e-06
-7.01711e-05
9.43537e-05
5.57412e-06
1.95466e-06
9.43537e-05
3.37133e-05
1.36718e-05
1.35641e-05
1.66945e-05
1.65495e-05
1.35641e-05
-2.22545e-05
1.65495e-05
-2.67984e-05
-2.22545e-05
3.87578e-05
-2.67984e-05
4.60058e-05
3.87578e-05
-7.01711e-05
4.60058e-05
-8.40799e-05
-7.01711e-05
9.43537e-05
-8.40799e-05
9.1548e-05
9.43537e-05
3.37132e-05
9.15481e-05
4.97642e-05
1.66945e-05
1.65495e-05
-3.03901e-06
-2.76199e-06
1.65495e-05
-2.67984e-05
-2.76199e-06
4.52327e-06
-2.67984e-05
4.60058e-05
4.52327e-06
-7.83649e-06
4.60058e-05
-8.40799e-05
-7.83649e-06
1.46254e-05
-8.40799e-05
9.1548e-05
1.46254e-05
-1.53432e-05
9.1548e-05
4.97642e-05
-1.53432e-05
1.9389e-05
-3.03901e-06
-2.76199e-06
1.34608e-06
1.20292e-06
-2.76199e-06
4.52327e-06
1.20292e-06
-1.956e-06
4.52327e-06
-7.83649e-06
-1.956e-06
3.36846e-06
-7.83649e-06
1.46254e-05
3.36846e-06
-6.2853e-06
1.46254e-05
-1.53432e-05
-6.2853e-06
6.81204e-06
-1.53432e-05
1.9389e-05
6.81204e-06
8.33466e-06
1.34608e-06
1.20292e-06
-6.72859e-07
-6.39659e-07
1.20292e-06
-1.956e-06
-6.39658e-07
9.6356e-07
-1.956e-06
3.36846e-06
9.6356e-07
-1.62709e-06
3.36846e-06
-6.2853e-06
-1.62709e-06
2.95847e-06
-6.2853e-06
6.81204e-06
2.95847e-06
-3.8474e-06
6.81204e-06
8.33466e-06
-3.8474e-06
-1.66961e-06
-6.72859e-07
-6.39658e-07
4.18907e-07
3.73832e-07
-6.39659e-07
9.6356e-07
3.73831e-07
-5.99255e-07
9.6356e-07
-1.62709e-06
-5.99255e-07
1.00424e-06
-1.62709e-06
2.95847e-06
1.00424e-06
-1.79473e-06
2.95847e-06
-3.8474e-06
-1.79473e-06
1.98912e-06
-3.8474e-06
-1.66962e-06
1.98912e-06
-6.04103e-07
4.18907e-07
3.73831e-07
-1.2161e-07
-9.62248e-08
3.73831e-07
-5.99255e-07
-9.62248e-08
1.79344e-07
-5.99255e-07
1.00424e-06
1.79344e-07
-3.15086e-07
1.00424e-06
-1.79473e-06
-3.15086e-07
5.93e-07
-1.79473e-06
1.98912e-06
5.93e-07
-1.75189e-06
1.98912e-06
-6.04101e-07
-1.75189e-06
4.87027e-06
-6.04101e-07
2.7187e-05
4.87027e-06
1.07111e-05
2.7187e-05
6.15054e-06
1.07111e-05
1.18728e-05
-1.2161e-07
-9.62248e-08
8.30371e-08
7.78246e-08
-9.62248e-08
1.79344e-07
7.78246e-08
-1.19518e-07
1.79344e-07
-3.15086e-07
-1.19518e-07
1.99345e-07
-3.15086e-07
5.93e-07
1.99345e-07
-3.58635e-07
1.50493e-05
-7.08059e-05
6.15055e-06
-2.46782e-05
-1.66962e-06
-3.66311e-05
-6.04101e-07
2.7187e-05
-3.66311e-05
1.50494e-05
2.7187e-05
6.15055e-06
-0.000354889
-0.000187542
0.000166306
6.62425e-06
-0.000173104
-0.000104546
-7.1363e-05
-9.59949e-05
-0.000104546
-0.000354889
-9.59949e-05
0.000166306
-7.1363e-05
-9.59949e-05
-2.17924e-05
-6.27135e-05
9.40952e-06
-0.000872813
0.00025259
-0.000767514
-0.000872813
-0.000173104
-0.000767514
-7.13631e-05
-0.000767514
-7.1363e-05
-7.08059e-05
-2.17924e-05
0.00025259
-0.000767514
1.50494e-05
-7.08059e-05
8.33466e-06
0.000171495
3.1803e-06
0.000216673
3.1803e-06
0.000216673
-1.66962e-06
-3.66311e-05
0.000171495
9.40954e-06
0.000216672
0.00025259
0.000216672
0.00025259
-3.66311e-05
1.50494e-05
0.150467
0.125719
0.017746
0.0166593
0.017746
0.0166593
-0.00312667
-0.000701825
0.0210622
0.0746345
0.00038896
0.0188282
0.0746345
0.150467
0.0188282
0.017746
0.0188282
0.017746
-0.00670725
-0.00312667
0.00038896
0.0188282
-5.57831e-05
-0.00670725
-0.00198612
0.00192898
0.000577458
0.000609599
0.00192898
0.0210622
0.000609598
0.000388961
0.000609598
0.000388961
-0.000187542
-5.57832e-05
0.000577458
0.000609599
-0.000354889
-0.000187542
-0.000188241
0.00024351
-0.00034349
0.000116466
0.00024351
-0.00198612
0.000116466
0.000577458
0.000116466
0.000577458
-0.000104546
-0.000354889
-0.00034349
0.000116466
-0.000173104
-0.000104546
-0.000411944
2.00659e-05
-0.000926363
-0.00068396
2.00658e-05
-0.000188241
-0.00068396
-0.00034349
-0.00068396
-0.00034349
-0.000872813
-0.000173104
-0.000926363
-0.00068396
9.40954e-06
-0.000872813
1.9389e-05
-0.000308468
1.15853e-05
-0.000378498
1.15853e-05
-0.000378498
8.33466e-06
0.000171495
-0.000308468
-0.000411944
-0.000378498
-0.000926363
-0.000378498
-0.000926363
0.000171495
9.40954e-06
0.673631
0.73335
0.706855
0.560707
0.73335
0.812962
0.560707
0.587383
0.706855
0.560707
0.150467
0.125719
0.479924
0.664555
0.185844
0.633415
0.664555
0.673631
0.633415
0.706855
0.633415
0.706855
0.0746345
0.150467
0.185844
0.633415
0.0210622
0.0746345
0.0210981
0.0693555
0.00467372
0.0200381
0.0693555
0.479924
0.0200381
0.185844
0.0200381
0.185844
0.00192898
0.0210622
0.00467372
0.0200381
-0.00198612
0.00192898
0.00418748
-0.00970075
-0.000144228
7.79972e-05
-0.00970075
0.0210981
7.79969e-05
0.00467372
7.79975e-05
0.00467372
0.00024351
-0.00198612
-0.000144228
7.79975e-05
-0.000188241
0.00024351
0.00204723
-0.0011845
0.00107174
-0.00273243
-0.00118451
0.00418748
-0.00273243
-0.000144228
-0.00273243
-0.000144228
2.00659e-05
-0.000188241
0.00107174
-0.00273243
-0.000411944
2.00659e-05
4.97642e-05
0.00211336
3.61952e-05
0.0010085
3.61952e-05
0.0010085
1.9389e-05
-0.000308468
0.00211336
0.00204723
0.0010085
0.00107174
0.0010085
0.00107174
-0.000308468
-0.000411944
0.936437
0.982734
0.882948
0.960596
0.750832
0.854393
0.660131
0.755372
0.854393
0.936437
0.755372
0.882948
0.755372
0.882948
0.73335
0.812962
0.660131
0.755372
0.673631
0.73335
0.655066
0.708316
0.669085
0.645759
0.708316
0.750832
0.645759
0.660131
0.645759
0.660131
0.664555
0.673631
0.669085
0.645759
0.479924
0.664555
0.0596537
0.323871
0.0445336
0.287966
0.323871
0.655066
0.287966
0.669085
0.287967
0.669085
0.0693555
0.479924
0.0445336
0.287966
0.0210981
0.0693555
-0.00107947
0.00445817
-0.000705664
0.00405641
0.00445817
0.0596537
0.00405641
0.0445336
0.00405641
0.0445336
-0.00970075
0.0210981
-0.000705664
0.00405641
0.00418748
-0.00970075
0.000257022
0.00221567
0.0016806
0.00212565
0.00221567
-0.00107947
0.00212565
-0.000705664
0.00212565
-0.000705664
-0.0011845
0.00418748
0.0016806
0.00212565
0.00204723
-0.0011845
3.37133e-05
0.000965726
4.77035e-05
0.00172686
4.77035e-05
0.00172686
4.97642e-05
0.00211336
0.000965726
0.000257022
0.00172686
0.0016806
0.00172686
0.0016806
0.00211336
0.00204723
0.373761
0.84717
0.870572
0.969682
0.870572
0.969682
0.936437
0.982734
0.0890686
0.133154
0.735177
0.666317
0.133154
0.373761
0.666317
0.870572
0.666317
0.870572
0.854393
0.936437
0.735177
0.666317
0.750832
0.854393
0.0810321
0.0890686
0.726617
0.735177
0.726617
0.735177
0.708316
0.750832
0.594911
0.726617
0.655066
0.708316
0.256113
0.594911
0.323871
0.655066
0.0401129
0.256113
0.0596537
0.323871
1.7407e-05
0.0401129
0.00445817
0.0596537
0.000306562
1.74071e-05
-0.00107947
0.00445817
0.000377453
0.00050033
0.000387738
0.00181677
0.00181677
0.000306562
0.00221567
-0.00107947
0.000387738
0.00181677
0.000257022
0.00221567
1.95467e-06
0.000176722
1.56542e-05
0.000522064
1.56542e-05
0.000522064
3.37133e-05
0.000965726
0.000176722
0.000377453
0.000522063
0.000387738
0.000522063
0.000387738
0.000965726
0.000257022
0.0200722
0.0544637
0.133154
0.373761
0.999887
0.9996
0.99974
1.00007
0.9996
0.999969
1.00007
1.00056
0.99974
1.00007
1.00021
0.999307
1.00007
1.00056
0.999307
0.999343
1.00056
1.00028
0.999343
0.99925
1.00028
1.00043
0.99925
0.999235
1.00136
0.998822
0.995026
1.00024
0.998822
1.00021
1.00024
0.999596
1.00021
0.999307
0.999596
1.00133
0.999307
0.999343
1.00133
1.00116
0.999343
0.99925
1.00116
1.00138
0.99925
0.999235
1.00138
1.00147
0.999235
0.99923
1.00147
1.00142
0.99923
0.999226
1.00142
1.00154
0.995026
1.00024
0.97947
0.994214
1.00024
0.999596
0.994214
1.00116
0.999596
1.00001
1.00116
0.999553
1.00001
1.00133
0.999553
0.996915
1.00133
1.00116
0.996915
0.997441
1.00116
1.00138
0.997441
0.997989
1.00138
1.00147
0.997989
0.997208
1.00147
1.00142
0.997208
0.997582
1.00116
0.999553
0.99943
0.999475
0.999553
0.996915
0.999475
1.00545
0.996915
0.996632
1.00545
1.0059
0.996632
0.997441
1.0059
1.0057
0.997441
0.997988
1.0057
1.00507
0.997988
0.997989
1.00507
1.00479
0.997989
0.99754
1.00479
1.0047
0.99754
0.997208
1.0047
1.00447
0.997208
0.99742
1.00447
1.00398
0.99742
0.997582
1.00398
1.00416
1.00545
1.0059
0.991782
0.991007
1.0059
1.0057
0.991007
0.993737
1.0057
1.00507
0.993737
0.994125
1.00507
1.00479
0.994125
0.993939
1.00479
1.0047
0.993939
0.993921
1.0047
1.00447
0.993921
0.99407
1.00447
1.00398
0.99407
0.993759
1.00398
1.00416
0.993759
0.993929
0.00253238
-0.00412174
0.000369027
0.00232206
0.0153517
0.0198726
-0.00364687
-0.00143376
0.0198726
0.0115823
-0.00143376
-0.00123453
0.0114929
0.0153517
-0.00380054
-0.00364687
0.008707
0.00895629
-0.00149897
-0.00117629
0.00637977
0.0088026
-0.00123082
-0.0016085
0.0088026
0.008707
-0.0016085
-0.00149897
0.069911
0.0049303
0.0152701
0.00409979
0.0049303
0.00637977
0.00409979
-0.00123082
0.00409979
-0.00123082
-0.00132951
0.000711063
0.0152701
0.0040998
-0.00412174
-0.00132951
0.396949
0.214785
0.0744249
0.0289196
0.214785
0.069911
0.0289196
0.0152701
0.0289196
0.0152701
0.00253238
-0.00412174
0.0744249
0.0289196
0.0115823
0.00253238
0.42478
0.495961
0.0849039
0.123782
0.495961
0.396949
0.123782
0.0744249
0.123782
0.0744249
0.0198726
0.0115823
0.0849039
0.123782
0.0153517
0.0198726
0.108638
0.290327
0.0176632
0.0386084
0.290327
0.42478
0.0386084
0.0849039
0.0386084
0.0849039
0.0114929
0.0153517
0.0176632
0.0386084
0.00173848
0.0114929
0.740381
0.73893
0.149117
0.144559
0.149117
0.144559
0.00864457
0.00839688
0.737762
0.741908
0.144601
0.148302
0.741908
0.740381
0.148302
0.149117
0.148302
0.149117
0.0077789
0.00864457
0.144601
0.148302
0.00863046
0.0077789
0.734232
0.737156
0.137739
0.143557
0.737156
0.737762
0.143557
0.144601
0.143557
0.144601
0.00895629
0.00863046
0.137739
0.143557
0.008707
0.00895629
0.73296
0.728261
0.137295
0.132689
0.728261
0.734232
0.132689
0.137739
0.132689
0.137739
0.0088026
0.008707
0.137295
0.132689
0.00637977
0.0088026
0.909541
0.782109
0.550839
0.21559
0.782109
0.73296
0.21559
0.137295
0.21559
0.137295
0.0049303
0.00637977
0.550839
0.21559
0.069911
0.0049303
0.845901
0.926824
0.746324
0.736906
0.926824
0.909541
0.736906
0.550839
0.736906
0.550839
0.214785
0.069911
0.746324
0.736906
0.396949
0.214785
0.817728
0.809485
0.672294
0.713662
0.809485
0.845901
0.713662
0.746324
0.713662
0.746324
0.495962
0.396949
0.672294
0.713662
0.42478
0.495961
0.493076
0.748328
0.316161
0.581257
0.748328
0.817728
0.581257
0.672294
0.581257
0.672294
0.290327
0.42478
0.316161
0.581257
0.108638
0.290327
0.122625
0.493076
0.0698159
0.316161
0.0698159
0.316161
0.0247458
0.108638
0.99407
0.993759
0.737762
0.741908
0.993759
0.993929
0.741908
0.740381
0.993939
0.993921
0.734232
0.737156
0.993921
0.99407
0.737156
0.737762
0.993737
0.994125
0.73296
0.728261
0.994125
0.993939
0.728261
0.734232
0.991782
0.991007
0.909542
0.782109
0.991007
0.993737
0.782109
0.73296
0.98128
0.990973
0.927878
0.975444
0.927878
0.975444
0.845901
0.926824
0.990973
0.991782
0.975444
1.00894
0.975444
1.00894
0.926824
0.909541
0.848203
0.964696
0.894801
0.908573
0.964696
0.98128
0.908573
0.927878
0.908573
0.927878
0.809485
0.845901
0.894801
0.908573
0.817728
0.809485
0.077862
0.384995
0.395443
0.756736
0.384995
0.848203
0.756735
0.894801
0.756736
0.894801
0.748328
0.817728
0.395443
0.756736
0.493076
0.748328
-0.00134258
0.0117669
0.0116296
0.0819587
0.0117669
0.077862
0.0819587
0.395443
0.0819587
0.395443
0.122625
0.493076
0.0116296
0.0819587
0.016232
0.122625
-0.000701825
-0.00134258
-0.00113119
0.0116296
0.99943
0.999475