# vtk DataFile Version 2.0
Hex test
ASCII
DATASET UNSTRUCTURED_GRID
POINTS 8952 float
24 -8.16667 0
24 -6 0
26 -8.16667 0
26 -6 0
26 -12 0
26 -8.16667 0
28 -12 0
28 -8.16667 0
26 -8.16667 0
26 -6 0
28 -8.16667 0
28 -6 0
26 -6 0
26 -4 0
28 -6 0
28 -4 0
26 -4 0
26 -2 0
28 -4 0
28 -2 0
26 -2 0
26 5.55112e-17 0
28 -2 0
28 3.46945e-17 0
28 -12 0
28 -8.16667 0
30 -12 0
30 -8.16667 0
28 -8.16667 0
28 -6 0
30 -8.16667 0
30 -6 0
28 -6 0
28 -4 0
30 -6 0
30 -4 0
28 -4 0
28 -2 0
30 -4 0
30 -2 0
28 -2 0
28 5.55112e-17 0
30 -2 0
30 3.46945e-17 0
30 -12 0
30 -8.16667 0
32 -12 0
32 -8.16667 0
30 -8.16667 0
30 -6 0
32 -8.16667 0
32 -6 0
30 -6 0
30 -4 0
32 -6 0
32 -4 0
30 -4 0
30 -2 0
32 -4 0
32 -2 0
30 -2 0
30 5.55112e-17 0
32 -2 0
32 3.46945e-17 0
32 -12 0
32 -8.16667 0
34 -12 0
34 -8.16667 0
32 -8.16667 0
32 -6 0
34 -8.16667 0
34 -6 0
32 -6 0
32 -4 0
34 -6 0
34 -4 0
32 -4 0
32 -2 0
34 -4 0
34 -2 0
32 -2 0
32 5.55112e-17 0
34 -2 0
34 3.46945e-17 0
34 -12 0
34 -8.16667 0
36 -12 0
36 -8.16667 0
34 -8.16667 0
34 -6 0
36 -8.16667 0
36 -6 0
34 -6 0
34 -4 0
36 -6 0
36 -4 0
34 -4 0
34 -2 0
36 -4 0
36 -2 0
34 -2 0
34 5.55112e-17 0
36 -2 0
36 3.46945e-17 0
36 -12 0
36 -8.16667 0
38 -12 0
38 -8.16667 0
36 -8.16667 0
36 -6 0
38 -8.16667 0
38 -6 0
36 -6 0
36 -4 0
38 -6 0
38 -4 0
36 -4 0
36 -2 0
38 -4 0
38 -2 0
36 -2 0
36 5.55112e-17 0
38 -2 0
38 3.46945e-17 0
38 -12 0
38 -8.16667 0
40 -12 0
40 -8.16667 0
38 -8.16667 0
38 -6 0
40 -8.16667 0
40 -6 0
38 -6 0
38 -4 0
40 -6 0
40 -4 0
38 -4 0
38 -2 0
40 -4 0
40 -2 0
38 -2 0
38 5.55112e-17 0
40 -2 0
40 2.77556e-17 0
40 -12 0
40 -8.16667 0
42 -12 0
42 -8.16667 0
40 -8.16667 0
40 -6 0
42 -8.16667 0
42 -6 0
40 -6 0
40 -4 0
42 -6 0
42 -4 0
40 -4 0
40 -2 0
42 -4 0
42 -2 0
40 -2 0
40 5.55112e-17 0
42 -2 0
42 2.77556e-17 0
40 2.77556e-17 0
40 1 0
42 0 0
42 1 0
40 1 0
40 2 0
42 1 0
42 2 0
40 2 0
40 3 0
42 2 0
42 3 0
40 3 0
40 4 0
42 3 0
42 4 0
42 -12 0
42 -8.16667 0
44 -12 0
44 -8.16667 0
42 -8.16667 0
42 -6 0
44 -8.16667 0
44 -6 0
42 -6 0
42 -4 0
44 -6 0
44 -4 0
42 -4 0
42 -2 0
44 -4 0
44 -2 0
42 -2 0
42 -2.77556e-17 0
44 -2 0
44 -2.77556e-17 0
44 -12 0
44 -8.16667 0
46 -12 0
46 -8.16667 0
38 6 0
38 7 0
39 6 0
39 7 0
39 6 0
39 7 0
40 6 0
40 7 0
38 4 0
38 5 0
40 4 0
40 5 0
38 2 0
38 3 0
40 2 0
40 3 0
38 3 0
38 4 0
40 3 0
40 4 0
38 3.46945e-17 0
38 1 0
40 2.77556e-17 0
40 1 0
38 1 0
38 2 0
40 1 0
40 2 0
36 6 0
36 7 0
37 6 0
37 7 0
36 7 0
36 8 0
37 7 0
37 8 0
36 4 0
36 5 0
37 4 0
37 5 0
36 5 0
36 6 0
37 5 0
37 6 0
37 5 0
37 6 0
38 5 0
38 6 0
37 4 0
37 5 0
38 4 0
38 5 0
36 2 0
36 3 0
37 2 0
37 3 0
36 3 0
36 4 0
37 3 0
37 4 0
37 3 0
37 4 0
38 3 0
38 4 0
37 2 0
37 3 0
38 2 0
38 3 0
36 3.46945e-17 0
36 1 0
37 -2.60209e-18 0
37 1 0
37 -2.60209e-18 0
37 1 0
38 3.46945e-17 0
38 1 0
36 1 0
36 2 0
37 1 0
37 2 0
37 1 0
37 2 0
38 1 0
38 2 0
35 8 0
35 9 0
36 8 0
36 9 0
34 6 0
34 7 0
35 6 0
35 7 0
34 7 0
34 8 0
35 7 0
35 8 0
35 7 0
35 8 0
36 7 0
36 8 0
35 6 0
35 7 0
36 6 0
36 7 0
34 4 0
34 5 0
35 4 0
35 5 0
34 5 0
34 6 0
35 5 0
35 6 0
35 5 0
35 6 0
36 5 0
36 6 0
35 4 0
35 5 0
36 4 0
36 5 0
34 2 0
34 3 0
35 2 0
35 3 0
34 3 0
34 4 0
35 3 0
35 4 0
35 3 0
35 4 0
36 3 0
36 4 0
35 2 0
35 3 0
36 2 0
36 3 0
34 3.46945e-17 0
34 1 0
35 -2.60209e-18 0
35 1 0
35 -2.60209e-18 0
35 1 0
36 3.46945e-17 0
36 1 0
34 1 0
34 2 0
35 1 0
35 2 0
35 1 0
35 2 0
36 1 0
36 2 0
32 6 0
32 7 0
33 6 0
33 7 0
32 7 0
32 8 0
33 7 0
33 8 0
33 7 0
33 8 0
34 7 0
34 8 0
33 6 0
33 7 0
34 6 0
34 7 0
32 4 0
32 5 0
33 4 0
33 5 0
32 5 0
32 6 0
33 5 0
33 6 0
33 5 0
33 6 0
34 5 0
34 6 0
33 4 0
33 5 0
34 4 0
34 5 0
32 2 0
32 3 0
33 2 0
33 3 0
32 3 0
32 4 0
33 3 0
33 4 0
33 3 0
33 4 0
34 3 0
34 4 0
33 2 0
33 3 0
34 2 0
34 3 0
32 3.46945e-17 0
32 1 0
33 -2.60209e-18 0
33 1 0
33 -2.60209e-18 0
33 1 0
34 3.46945e-17 0
34 1 0
32 1 0
32 2 0
33 1 0
33 2 0
33 1 0
33 2 0
34 1 0
34 2 0
30 6 0
30 7 0
31 6 0
31 7 0
31 7 0
31 8 0
32 7 0
32 8 0
31 6 0
31 7 0
32 6 0
32 7 0
30 4 0
30 5 0
31 4 0
31 5 0
30 5 0
30 6 0
31 5 0
31 6 0
31 5 0
31 6 0
32 5 0
32 6 0
31 4 0
31 5 0
32 4 0
32 5 0
30 2 0
30 3 0
31 2 0
31 3 0
30 3 0
30 4 0
31 3 0
31 4 0
31 3 0
31 4 0
32 3 0
32 4 0
31 2 0
31 3 0
32 2 0
32 3 0
30 3.46945e-17 0
30 1 0
31 -2.60209e-18 0
31 1 0
31 -2.60209e-18 0
31 1 0
32 3.46945e-17 0
32 1 0
30 1 0
30 2 0
31 1 0
31 2 0
31 1 0
31 2 0
32 1 0
32 2 0
29 6 0
29 7 0
30 6 0
30 7 0
28 4 0
28 5 0
29 4 0
29 5 0
28 5 0
28 6 0
29 5 0
29 6 0
29 5 0
29 6 0
30 5 0
30 6 0
29 4 0
29 5 0
30 4 0
30 5 0
28 2 0
28 3 0
29 2 0
29 3 0
28 3 0
28 4 0
29 3 0
29 4 0
29 3 0
29 4 0
30 3 0
30 4 0
29 2 0
29 3 0
30 2 0
30 3 0
28 3.46945e-17 0
28 1 0
29 -2.60209e-18 0
29 1 0
29 -2.60209e-18 0
29 1 0
30 3.46945e-17 0
30 1 0
28 1 0
28 2 0
29 1 0
29 2 0
29 1 0
29 2 0
30 1 0
30 2 0
26 3.46945e-17 0
26 1 0
27 -2.60209e-18 0
27 1 0
27 -2.60209e-18 0
27 1 0
28 3.46945e-17 0
28 1 0
40 4 0
40 5 0
42 4 0
42 5 0
40 5 0
40 6 0
42 5 0
42 6 0
42 5.55112e-17 0
42 1 0
44 2.77556e-17 0
44 1 0
42 1 0
42 2 0
44 1 0
44 2 0
42 2 0
42 3 0
44 2 0
44 3 0
42 3 0
42 4 0
44 3 0
44 4 0
42 4 0
42 5 0
44 4 0
44 5 0
42 5 0
42 6 0
44 5 0
44 6 0
44 -8.16667 0
44 -6 0
46 -8.16667 0
46 -6 0
44 -6 0
44 -4 0
46 -6 0
46 -4 0
44 -4 0
44 -2 0
46 -4 0
46 -2 0
44 -2 0
44 -2.77556e-17 0
46 -2 0
46 -2.77556e-17 0
44 2.77556e-17 0
44 2 0
46 2.77556e-17 0
46 2 0
44 2 0
44 4 0
46 2 0
46 4 0
44 4 0
44 6 0
46 4 0
46 6 0
46 -12 0
46 -8.16667 0
48 -12 0
48 -8.16667 0
46 -8.16667 0
46 -6 0
48 -8.16667 0
48 -6 0
46 -6 0
46 -4 0
48 -6 0
48 -4 0
46 -4 0
46 -2 0
48 -4 0
48 -2 0
46 -2 0
46 -2.77556e-17 0
48 -2 0
48 -2.77556e-17 0
46 2.77556e-17 0
46 2 0
48 2.77556e-17 0
48 2 0
46 2 0
46 4 0
48 2 0
48 4 0
46 4 0
46 6 0
48 4 0
48 6 0
46 6 0
46 7 0
48 6 0
48 7 0
46 7 0
46 8 0
48 7 0
48 8 0
46 8 0
46 9 0
48 8 0
48 9 0
46 9 0
46 10 0
48 9 0
48 10 0
46 10 0
46 11 0
48 10 0
48 11 0
46 11 0
46 12 0
48 11 0
48 12 0
46 13 0
46 14 0
48 13 0
48 14 0
48 -12 0
48 -8.16667 0
50 -12 0
50 -8.16667 0
48 -8.16667 0
48 -6 0
50 -8.16667 0
50 -6 0
48 -6 0
48 -4 0
50 -6 0
50 -4 0
48 -4 0
48 -2 0
50 -4 0
50 -2 0
48 -2 0
48 -2.77556e-17 0
50 -2 0
50 -2.77556e-17 0
48 2.77556e-17 0
48 2 0
50 2.77556e-17 0
50 2 0
48 2 0
48 4 0
50 2 0
50 4 0
48 4 0
48 6 0
50 4 0
50 6 0
48 6 0
48 7 0
50 6 0
50 7 0
48 7 0
48 8 0
50 7 0
50 8 0
48 8 0
48 9 0
50 8 0
50 9 0
48 9 0
48 10 0
50 9 0
50 10 0
48 10 0
48 11 0
50 10 0
50 11 0
48 11 0
48 12 0
50 11 0
50 12 0
48 12 0
48 13 0
50 12 0
50 13 0
48 13 0
48 14 0
50 13 0
50 14 0
50 -12 0
50 -8.16667 0
52 -12 0
52 -8.16667 0
50 -8.16667 0
50 -6 0
52 -8.16667 0
52 -6 0
50 -6 0
50 -4 0
52 -6 0
52 -4 0
50 -4 0
50 -2 0
52 -4 0
52 -2 0
50 -2 0
50 -2.77556e-17 0
52 -2 0
52 -2.77556e-17 0
50 2.77556e-17 0
50 2 0
52 2.77556e-17 0
52 2 0
50 2 0
50 4 0
52 2 0
52 4 0
50 4 0
50 6 0
52 4 0
52 6 0
50 6 0
50 8 0
52 6 0
52 8 0
50 8 0
50 10 0
52 8 0
52 10 0
50 10 0
50 12 0
52 10 0
52 12 0
50 12 0
50 14 0
52 12 0
52 14 0
52 -12 0
52 -8.16667 0
54 -12 0
54 -8.16667 0
52 -8.16667 0
52 -6 0
54 -8.16667 0
54 -6 0
52 -6 0
52 -4 0
54 -6 0
54 -4 0
52 -4 0
52 -2 0
54 -4 0
54 -2 0
52 -2 0
52 -2.77556e-17 0
54 -2 0
54 -2.77556e-17 0
52 2.77556e-17 0
52 2 0
54 2.77556e-17 0
54 2 0
52 2 0
52 4 0
54 2 0
54 4 0
52 4 0
52 6 0
54 4 0
54 6 0
52 6 0
52 8 0
54 6 0
54 8 0
52 8 0
52 10 0
54 8 0
54 10 0
52 10 0
52 12 0
54 10 0
54 12 0
52 12 0
52 14 0
54 12 0
54 14 0
54 -12 0
54 -8.16667 0
56.1667 -12 0
56.1667 -8.16667 0
54 -8.16667 0
54 -6 0
56.1667 -8.16667 0
56.1667 -6 0
54 -6 0
54 -4 0
56.1667 -6 0
56.1667 -4 0
54 -4 0
54 -2 0
56.1667 -4 0
56.1667 -2 0
54 -2 0
54 -2.77556e-17 0
56.1667 -2 0
56.1667 0 0
54 2.77556e-17 0
54 2 0
56.1667 0 0
56.1667 2 0
54 2 0
54 4 0
56.1667 2 0
56.1667 4 0
54 4 0
54 6 0
56.1667 4 0
56.1667 6 0
54 6 0
54 8 0
56.1667 6 0
56.1667 8 0
54 8 0
54 10 0
56.1667 8 0
56.1667 10 0
54 10 0
54 12 0
56.1667 10 0
56.1667 12 0
54 12 0
54 14 0
56.1667 12 0
56.1667 14 0
56.1667 -12 0
56.1667 -8.16667 0
60 -12 0
60 -8.16667 0
56.1667 -8.16667 0
56.1667 -6 0
60 -8.16667 0
60 -6 0
56.1667 -6 0
56.1667 -4 0
60 -6 0
60 -4 0
56.1667 -4 0
56.1667 -2 0
60 -4 0
60 -2 0
56.1667 -2 0
56.1667 6.93889e-17 0
60 -2 0
60 0 0
56.1667 -1.38778e-17 0
56.1667 2 0
60 0 0
60 2 0
56.1667 2 0
56.1667 4 0
60 2 0
60 4 0
56.1667 4 0
56.1667 6 0
60 4 0
60 6 0
56.1667 6 0
56.1667 8 0
60 6 0
60 8 0
56.1667 8 0
56.1667 10 0
60 8 0
60 10 0
56.1667 10 0
56.1667 12 0
60 10 0
60 12 0
56.1667 12 0
56.1667 14 0
60 12 0
60 14 0
44 12 0
44 13 0
46 12 0
46 13 0
44 13 0
44 14 0
46 13 0
46 14 0
44 10 0
44 11 0
46 10 0
46 11 0
44 11 0
44 12 0
46 11 0
46 12 0
44 8 0
44 9 0
46 8 0
46 9 0
44 9 0
44 10 0
46 9 0
46 10 0
44 6 0
44 7 0
46 6 0
46 7 0
44 7 0
44 8 0
46 7 0
46 8 0
42 12 0
42 13 0
43 12 0
43 13 0
43 12 0
43 13 0
44 12 0
44 13 0
42 10 0
42 11 0
43 10 0
43 11 0
42 11 0
42 12 0
43 11 0
43 12 0
43 11 0
43 12 0
44 11 0
44 12 0
43 10 0
43 11 0
44 10 0
44 11 0
42 8 0
42 9 0
43 8 0
43 9 0
42 9 0
42 10 0
43 9 0
43 10 0
43 9 0
43 10 0
44 9 0
44 10 0
43 8 0
43 9 0
44 8 0
44 9 0
42 6 0
42 7 0
43 6 0
43 7 0
43 6 0
43 7 0
44 6 0
44 7 0
42 7 0
42 8 0
43 7 0
43 8 0
43 7 0
43 8 0
44 7 0
44 8 0
41 12 0
41 13 0
42 12 0
42 13 0
40 10 0
40 11 0
41 10 0
41 11 0
40 11 0
40 12 0
41 11 0
41 12 0
41 11 0
41 12 0
42 11 0
42 12 0
41 10 0
41 11 0
42 10 0
42 11 0
40 8 0
40 9 0
41 8 0
41 9 0
40 9 0
40 10 0
41 9 0
41 10 0
41 9 0
41 10 0
42 9 0
42 10 0
41 8 0
41 9 0
42 8 0
42 9 0
40 6 0
40 7 0
41 6 0
41 7 0
41 6 0
41 7 0
42 6 0
42 7 0
40 7 0
40 8 0
41 7 0
41 8 0
41 7 0
41 8 0
42 7 0
42 8 0
38 10 0
38 11 0
39 10 0
39 11 0
39 11 0
39 12 0
40 11 0
40 12 0
39 10 0
39 11 0
40 10 0
40 11 0
38 8 0
38 9 0
39 8 0
39 9 0
38 9 0
38 10 0
39 9 0
39 10 0
39 9 0
39 10 0
40 9 0
40 10 0
39 8 0
39 9 0
40 8 0
40 9 0
38 7 0
38 8 0
39 7 0
39 8 0
39 7 0
39 8 0
40 7 0
40 8 0
38 5 0
38 6 0
40 5 0
40 6 0
36 8 0
36 9 0
37 8 0
37 9 0
37 9 0
37 10 0
38 9 0
38 10 0
37 8 0
37 9 0
38 8 0
38 9 0
37 7 0
37 8 0
38 7 0
38 8 0
37 6 0
37 7 0
38 6 0
38 7 0
22 12 0
22 13 0
24 12 0
24 13 0
22 13 0
22 14 0
24 13 0
24 14 0
24 12 0
24 13 0
26 12 0
26 13 0
24 13 0
24 14 0
26 13 0
26 14 0
24 14 0
24 16 0
26 14 0
26 16 0
24 16 0
24 18 0
26 16 0
26 18 0
24 18 0
24 20 0
26 18 0
26 20 0
26 12 0
26 13 0
[...]
POINT_DATA 8952
SCALARS phi float 1
LOOKUP_TABLE default
-2.88271e-06
4.5318e-06
4.49592e-06
-5.1569e-06
3.94878e-06
4.49592e-06
-3.08116e-06
-3.03325e-06
4.49592e-06
-5.1569e-06
-3.03325e-06
3.12102e-06
-5.1569e-06
7.38834e-06
3.12102e-06
-5.97199e-06
7.38834e-06
-1.50408e-05
-5.97199e-06
-2.08879e-05
-1.50408e-05
5.20232e-06
-2.08879e-05
3.73314e-05
-3.08116e-06
-3.03325e-06
4.06011e-05
3.74296e-05
-3.03325e-06
3.12102e-06
3.74296e-05
-6.62646e-05
3.12102e-06
-5.97199e-06
-6.62646e-05
0.000113964
-5.97199e-06
-2.08879e-05
0.000113964
-0.000168017
-2.08879e-05
3.73314e-05
-0.000168017
-8.23085e-05
4.06011e-05
3.74296e-05
3.38534e-05
3.39806e-05
3.74296e-05
-6.62646e-05
3.39806e-05
-5.32561e-05
-6.62646e-05
0.000113964
-5.32561e-05
8.69558e-05
0.000113964
-0.000168017
8.69558e-05
-0.000116214
-0.000168017
-8.23085e-05
-0.000116214
-7.58286e-05
3.38534e-05
3.39806e-05
-8.04411e-06
-7.83948e-06
3.39806e-05
-5.32561e-05
-7.83948e-06
1.24541e-05
-5.32561e-05
8.69558e-05
1.24541e-05
-2.04392e-05
8.69557e-05
-0.000116214
-2.04392e-05
2.92947e-05
-0.000116214
-7.58285e-05
2.92947e-05
2.92018e-05
-8.04411e-06
-7.83948e-06
2.36235e-06
2.28406e-06
-7.83948e-06
1.24541e-05
2.28406e-06
-3.34562e-06
1.24541e-05
-2.04392e-05
-3.34562e-06
5.23709e-06
-2.04392e-05
2.92947e-05
5.23709e-06
-7.23561e-06
2.92947e-05
2.92018e-05
-7.23561e-06
-1.11005e-05
2.36235e-06
2.28406e-06
-4.72829e-06
-4.66671e-06
2.28406e-06
-3.34562e-06
-4.66671e-06
7.28558e-06
-3.34562e-06
5.23709e-06
7.28558e-06
-1.1983e-05
5.2371e-06
-7.23561e-06
-1.1983e-05
1.4294e-05
-7.23561e-06
-1.11005e-05
1.4294e-05
1.8977e-05
-4.72829e-06
-4.66671e-06
-4.63876e-07
-4.93868e-07
-4.66671e-06
7.28558e-06
-4.93868e-07
8.35398e-07
7.28558e-06
-1.1983e-05
8.35398e-07
-1.49357e-06
-1.1983e-05
1.4294e-05
-1.49357e-06
2.66677e-06
1.4294e-05
1.8977e-05
2.66677e-06
-1.11794e-05
-4.63876e-07
-4.93868e-07
1.36712e-06
1.42694e-06
-4.93868e-07
8.35398e-07
1.42694e-06
-2.09388e-06
8.35398e-07
-1.49356e-06
-2.09388e-06
3.3957e-06
-1.49357e-06
2.66677e-06
3.3957e-06
-5.65091e-06
2.66677e-06
-1.11794e-05
-5.65091e-06
8.87091e-06
-1.11794e-05
-1.57934e-05
8.8709e-06
-1.32629e-05
-1.57934e-05
-1.90497e-06
-1.32629e-05
9.2345e-06
-1.90497e-06
-2.49148e-06
9.2345e-06
1.95336e-06
-2.49148e-06
-3.29438e-06
1.95336e-06
1.96735e-05
1.36712e-06
1.42694e-06
-2.15144e-07
-2.14154e-07
1.42694e-06
-2.09388e-06
-2.14154e-07
3.48914e-07
-2.09388e-06
3.3957e-06
3.48914e-07
-5.98791e-07
3.3957e-06
-5.65091e-06
-5.98791e-07
1.13347e-06
-5.65091e-06
8.87091e-06
1.13347e-06
-3.27498e-06
-2.15144e-07
-2.14154e-07
5.83705e-08
6.57511e-08
-0.000861969
0.000819638
-7.709e-05
-0.000926628
-7.709e-05
-0.000926628
3.32938e-05
-0.000913567
-0.000310771
0.00064721
-3.29438e-06
0.00018993
-5.30556e-05
0.000185842
-1.90497e-06
-2.49147e-06
0.000185842
-0.000310771
-2.49148e-06
-3.29439e-06
1.8977e-05
0.000176813
-1.11794e-05
-1.57934e-05
0.000176813
-5.30556e-05
-1.57934e-05
-1.90497e-06
0.000958825
-0.00221206
-0.00141918
0.00290178
-0.00221206
0.00263144
0.00290178
-0.00450569
0.000122194
-0.000290065
-0.000399693
0.000624613
-0.000290065
0.000958825
0.000624613
-0.00141918
0.000624614
-0.00141918
0.00064721
-0.000861968
-0.000399693
0.000624613
-0.000310771
0.00064721
4.31604e-05
-0.000179958
-3.24617e-05
8.46949e-06
-0.000179958
0.000122194
8.4695e-06
-0.000399693
8.46949e-06
-0.000399693
0.000185842
-0.000310771
-3.24617e-05
8.46947e-06
-5.30556e-05
0.000185842
-1.11005e-05
-7.21427e-05
1.02138e-06
-2.95249e-05
1.02138e-06
-2.95249e-05
1.8977e-05
0.000176813
-7.21427e-05
4.31604e-05
-2.95249e-05
-3.24617e-05
-2.95249e-05
-3.24617e-05
0.000176813
-5.30556e-05
0.0230626
0.0411703
0.00263144
0.00181166
0.0172092
0.0838603
-7.28369e-05
0.00736575
0.0838603
0.204568
0.00736575
0.0230626
0.00736575
0.0230626
-0.00221206
0.00263144
-7.28368e-05
0.00736575
0.000958825
-0.00221206
-0.00015504
0.00314383
-0.000198207
5.23582e-05
0.00314383
0.0172092
5.23582e-05
-7.28369e-05
5.23583e-05
-7.28369e-05
-0.000290065
0.000958825
-0.000198207
5.23583e-05
0.000122194
-0.000290065
-0.000190716
-6.27818e-05
-8.83464e-05
7.86964e-05
-6.27819e-05
-0.00015504
7.86963e-05
-0.000198207
7.86964e-05
-0.000198207
-0.000179958
0.000122194
-8.83464e-05
7.86963e-05
4.31604e-05
-0.000179958
2.92018e-05
0.000293717
1.45007e-05
0.000198528
1.45007e-05
0.000198528
-1.11005e-05
-7.21427e-05
0.000293717
-0.000190716
0.000198528
-8.83464e-05
0.000198528
-8.83464e-05
-7.21427e-05
4.31604e-05
0.303351
0.529666
0.100574
0.357689
0.529666
0.583614
0.357689
0.545321
0.357689
0.545321
0.0838603
0.204568
0.100574
0.357689
0.0172092
0.0838603
0.0116051
0.0565252
-0.000457449
0.0203687
0.0565251
0.303351
0.0203687
0.100574
0.0203687
0.100574
0.00314383
0.0172092
-0.000457449
0.0203687
-0.00015504
0.00314383
0.00116755
-0.00360171
-0.000646109
0.000651003
-0.00360171
0.0116051
0.000651003
-0.00045745
0.000651003
-0.000457449
-6.27819e-05
-0.00015504
-0.000646109
0.000651003
-0.000190716
-6.27819e-05
-7.58285e-05
-0.000569759
-1.40892e-05
-0.000636066
-1.40892e-05
-0.000636066
2.92018e-05
0.000293717
-0.000569759
0.00116755
-0.000636066
-0.000646109
-0.000636066
-0.000646109
0.000293717
-0.000190716
0.400288
0.64854
0.456133
0.606412
0.606412
0.609686
0.529666
0.583614
0.456133
0.606412
0.303351
0.529666
0.0114265
0.082474
0.0154988
0.113211
0.082474
0.400288
0.113211
0.456133
0.113211
0.456133
0.0565252
0.303351
0.0154988
0.113211
0.0116051
0.0565251
0.00115169
-0.00356927
0.00138538
-0.00395408
-0.00356927
0.0114265
-0.00395408
0.0154988
-0.00395408
0.0154988
-0.00360171
0.0116051
0.00138538
-0.00395408
0.00116755
-0.00360171
-8.23085e-05
-0.000948574
-0.00010387
-0.00107635
-0.00010387
-0.00107635
-7.58286e-05
-0.000569759
-0.000948573
0.00115169
-0.00107635
0.00138538
-0.00107635
0.00138538
-0.000569759
0.00116755
0.161799
0.556648
0.400288
0.64854
2.78315e-05
-2.97259e-05
0.000706179
0.0179118
-2.97256e-05
-0.0014706
0.0179118
0.161799
0.0179118
0.161799
0.082474
0.400288
0.000706179
0.0179118
0.0114265
0.082474
-9.63562e-05
-7.66102e-05
-2.82067e-05
-6.09181e-05
-7.66102e-05
2.78315e-05
-6.09181e-05
0.000706179
-6.09182e-05
0.000706179
-0.00356927
0.0114265
-2.82068e-05
-6.09182e-05
0.00115169
-0.00356927
3.73314e-05
0.000218322
-1.67559e-05
-0.00066307
-1.67559e-05
-0.00066307
-8.23085e-05
-0.000948574
0.000218322
-9.63561e-05
-0.00066307
-2.82067e-05
-0.00066307
-2.82067e-05
-0.000948573
0.00115169
5.20231e-06
-0.000190591
3.27585e-05
9.21383e-05
3.27585e-05
9.21383e-05
3.73314e-05
0.000218322
-3.29438e-06
0.00018993
1.96735e-05
7.70768e-06
0.00018993
3.32938e-05
7.70768e-06
8.1855e-05
8.87091e-06
-1.32629e-05
-3.27498e-06
-3.18216e-06
-1.32629e-05
9.2345e-06
-3.18216e-06
-3.27765e-06
9.2345e-06
1.95336e-06
-3.27765e-06
-4.40926e-06
1.95336e-06
1.96735e-05
-4.40926e-06
4.2856e-06
1.96735e-05
7.70768e-06
4.2856e-06
2.38713e-05
7.70768e-06
8.1855e-05
2.38713e-05
4.50954e-06
-2.14154e-07
3.48914e-07
6.57512e-08
-9.93267e-08
3.48914e-07
-5.98791e-07
-9.93267e-08
1.65425e-07
-5.98791e-07
1.13347e-06
1.65425e-07
-3.01773e-07
1.13347e-06
-3.27498e-06
-3.01774e-07
1.2098e-06
-3.27498e-06
-3.27765e-06
1.2098e-06
2.57615e-06
-3.27765e-06
4.2856e-06
2.57615e-06
-1.08042e-06
4.28559e-06
4.50954e-06
-1.08042e-06
5.74201e-06
5.83705e-08
6.57512e-08
1.61135e-07
1.52641e-07
6.57512e-08
-9.93267e-08
1.52641e-07
-2.50096e-07
-9.93267e-08
1.65425e-07
-2.50096e-07
4.30442e-07
1.65425e-07
-3.01774e-07
4.30442e-07
-7.66431e-07
-3.01774e-07
1.2098e-06
-7.66431e-07
1.14526e-06
1.2098e-06
2.57615e-06
1.14526e-06
-4.70577e-06
2.57615e-06
-1.08042e-06
-4.70577e-06
7.21982e-06
-1.08042e-06
5.74201e-06
7.21982e-06
-1.22631e-05
5.74201e-06
1.21677e-05
-1.22631e-05
9.59492e-06
1.21677e-05
-1.28844e-05
9.59492e-06
-2.58189e-06
-1.28844e-05
3.21813e-06
-2.58189e-06
-1.66099e-05
3.21813e-06
8.29857e-06
-1.66099e-05
1.58267e-05
8.29858e-06
-3.43721e-05
1.58267e-05
5.50897e-05
-3.43721e-05
6.21618e-05
5.50897e-05
4.32989e-05
0.000198376
5.10425e-05
-0.00017367
-0.000355585
1.61135e-07
1.52641e-07
-1.00866e-08
-1.33478e-08
1.52641e-07
-2.50096e-07
-1.33478e-08
8.64424e-10
-2.50096e-07
4.30442e-07
8.64435e-10
1.07027e-08
4.30442e-07
-7.66431e-07
1.07027e-08
-5.7378e-08
-7.66431e-07
1.14526e-06
-5.7378e-08
1.90913e-07
1.14526e-06
-4.70577e-06
1.90914e-07
1.0429e-06
-4.70577e-06
7.21982e-06
1.0429e-06
-1.06044e-06
7.21982e-06
-1.22631e-05
-1.06044e-06
1.9886e-06
-1.22631e-05
9.59492e-06
1.9886e-06
3.0703e-06
9.59492e-06
-2.58189e-06
3.0703e-06
2.0962e-06
-2.58189e-06
-1.66099e-05
2.0962e-06
-1.33146e-06
-1.66099e-05
1.58267e-05
-1.33146e-06
-4.93804e-06
1.58267e-05
5.50897e-05
-4.93804e-06
-1.19572e-07
5.50897e-05
4.32989e-05
-1.19572e-07
4.43729e-05
4.32989e-05
-0.00017367
4.43729e-05
0.000142263
-0.00017367
-0.000355584
0.000142263
0.000214522
-1.00866e-08
-1.33478e-08
1.06869e-08
1.01203e-08
-1.33478e-08
8.64425e-10
1.01203e-08
-1.2131e-08
8.64422e-10
1.07027e-08
-1.2131e-08
1.8423e-08
1.07027e-08
-5.7378e-08
1.8423e-08
-2.42104e-08
-5.73781e-08
1.90914e-07
-2.42104e-08
-3.11582e-08
1.90914e-07
1.0429e-06
-3.11582e-08
-7.08964e-07
1.0429e-06
-1.06044e-06
-7.08965e-07
8.12797e-07
-1.06044e-06
1.9886e-06
8.12797e-07
-1.68736e-06
1.9886e-06
2.0962e-06
-1.68736e-06
-2.82019e-07
2.0962e-06
-4.93804e-06
-2.82019e-07
2.12833e-06
-4.93804e-06
4.43729e-05
2.12833e-06
-1.13617e-05
4.43729e-05
0.000214522
-1.13617e-05
-0.000112553
1.06869e-08
1.01203e-08
-5.48187e-09
-4.32569e-09
1.01203e-08
-1.2131e-08
-4.32569e-09
6.20153e-09
-1.2131e-08
1.8423e-08
6.20153e-09
-1.02274e-08
1.8423e-08
-2.42104e-08
-1.02274e-08
1.45553e-08
-2.42104e-08
-3.11581e-08
1.45553e-08
2.21433e-08
-3.11582e-08
-7.08964e-07
2.21433e-08
4.1042e-07
-7.08965e-07
8.12797e-07
4.10421e-07
-4.54816e-07
8.12798e-07
-1.68736e-06
-4.54816e-07
1.00818e-06
-1.68736e-06
-2.82019e-07
1.00818e-06
2.26045e-07
-2.82019e-07
2.12833e-06
2.26046e-07
-1.28569e-06
2.12833e-06
-1.13617e-05
-1.28569e-06
7.23234e-06
-1.13617e-05
-0.000112553
7.23234e-06
6.51066e-05
-5.48187e-09
-4.32569e-09
2.49587e-09
3.93856e-10
-4.32569e-09
6.20154e-09
3.93856e-10
-3.66656e-09
6.20153e-09
-1.02274e-08
-3.66656e-09
7.99012e-09
-1.02274e-08
1.45553e-08
7.99012e-09
-1.48727e-08
1.45553e-08
2.21433e-08
-1.48727e-08
-1.31229e-08
2.21433e-08
4.10421e-07
-1.3123e-08
-2.54711e-07
4.10421e-07
-4.54816e-07
-2.54711e-07
2.68814e-07
-4.54816e-07
1.00818e-06
2.68814e-07
-6.8396e-07
1.00818e-06
2.26046e-07
-6.8396e-07
-1.50935e-07
2.26046e-07
-1.28569e-06
-1.50935e-07
6.77581e-07
-1.28569e-06
7.23234e-06
6.77581e-07
-4.76496e-06
7.23234e-06
6.51066e-05
-4.76496e-06
-3.96693e-05
2.49587e-09
3.93855e-10
1.886e-09
7.07498e-10
3.93854e-10
-3.66656e-09
7.07498e-10
-1.42566e-09
-3.66656e-09
7.99012e-09
-1.42566e-09
2.65012e-09
7.99012e-09
-1.48727e-08
2.65012e-09
-3.08727e-09
-1.48727e-08
-1.3123e-08
-3.08727e-09
-2.63977e-08
-1.3123e-08
-2.54711e-07
-2.63977e-08
-2.26362e-07
-2.54711e-07
2.68814e-07
-2.26362e-07
2.06487e-07
2.68814e-07
-6.8396e-07
2.06487e-07
-5.90415e-07
-6.8396e-07
-1.50935e-07
-5.90415e-07
-3.46608e-07
-1.50935e-07
6.77581e-07
-3.46608e-07
1.20365e-06
6.77581e-07
-4.76496e-06
1.20365e-06
-4.99099e-06
-4.76496e-06
-3.96693e-05
-4.99099e-06
-3.48635e-05
4.8026e-05
0.000197783
6.21618e-05
0.000198376
0.000197783
0.000423981
0.000198376
5.10425e-05
2.41801e-05
-4.36547e-05
8.29857e-06
-3.43721e-05
-4.36547e-05
4.8026e-05
-3.43721e-05
6.21618e-05
1.87746e-05
-2.19334e-05
-1.28844e-05
3.21813e-06
-2.19334e-05
2.41801e-05
3.21813e-06
8.29857e-06
4.50954e-06
-4.44768e-05
5.74201e-06
1.21677e-05
-4.44768e-05
1.87746e-05
1.21677e-05
-1.28844e-05
-0.000433605
-0.00581973
0.000277423
0.00196725
0.000277423
0.00196725
4.8026e-05
0.000197783
-0.000232739
0.000678159
7.18956e-05
-0.000256978
0.000678159
-0.000433605
-0.000256978
0.000277423
-0.000256978
0.000277423
-4.36547e-05
4.8026e-05
7.18955e-05
-0.000256978
2.41801e-05
-4.36547e-05
1.58673e-06
0.000115679
-4.28999e-05
-2.05592e-05
0.000115679
-0.000232739
-2.05592e-05
7.18955e-05
-2.05592e-05
7.18956e-05
-2.19334e-05
2.41801e-05
-4.28999e-05
-2.05592e-05
1.87746e-05
-2.19334e-05
8.1855e-05
8.31051e-05
4.79543e-05
8.70581e-05
4.79543e-05
8.70581e-05
4.50954e-06
-4.44768e-05
8.31051e-05
1.58673e-06
8.70582e-05
-4.28999e-05
8.70582e-05
-4.28999e-05
-4.44768e-05
1.87746e-05
0.00415661
0.013084
-0.000433605
-0.00581973
-0.00109977
0.01102
0.000455532
-0.000328895
0.01102
0.0242329
-0.000328895
0.00415661
-0.000328895
0.00415661
0.000678159
-0.000433605
0.000455532
-0.000328895
-0.000232739
0.000678159
-0.000447383
0.000784451
-3.85134e-05
-0.000231699
0.000784451
-0.00109977
-0.000231699
0.000455533
-0.000231699
0.000455533
0.000115679
-0.000232739
-3.85134e-05
-0.000231699
1.58673e-06
0.000115679
3.32938e-05
-0.000913567
6.3252e-05
-0.000253586
6.3252e-05
-0.000253586
8.1855e-05
8.31051e-05
-0.000913567
-0.000447382
-0.000253586
-3.85133e-05
-0.000253586
-3.85133e-05
8.31051e-05
1.58674e-06
-0.00709035
0.179473
-3.61946e-05
0.0427091
0.0427091
0.19454
0.01102
0.0242329
-3.61945e-05
0.0427091
-0.00109977
0.01102
-0.00296832
0.00620111
-0.00173496
0.000740617
0.00620111
-0.00709035
0.000740617
-3.61945e-05
0.000740617
-3.61946e-05
0.000784451
-0.00109976
-0.00173496
0.000740617
-0.000447383
0.000784451
0.000819638
-0.00296832
-0.000926628
-0.00173496
-0.000926628
-0.00173496
-0.000913567
-0.000447383
0.00064721
-0.000861969
0.00018993
3.32938e-05
0.00263144
0.00181166
-0.00450569
0.00499418
0.00499418
0.00816465
0.00620111
-0.00709035
-0.00450569
0.00499418
-0.00296832
0.0062011
0.00290178
-0.00450569
0.000819638
-0.00296832
-0.00141918
0.00290178
-0.000861969
0.000819638
1.00503
0.99745
1.00057
1.00269
0.99745
0.999674
1.00269
1.00094
1.00057
1.00269
0.999917
1.00674
1.00269
1.00094
1.00674
1.00084
1.00094
0.999972
1.00084
1.00074
0.999972
0.999798
1.00074
1.00004
0.999798
0.999816
1.00004
1.00058
0.999917
1.00674
1.00183
1.00375
1.00674
1.00084
1.00375
1.00237
1.00084
1.00074
1.00237
0.999194
1.00074
1.00004
0.999194
0.999445
1.00004
1.00058
0.999445
0.999171
1.00058
1.00027
0.999171
0.999255
1.00027
1.00051
0.999255
0.999144
1.00183
1.00375
1.00032
1.00052
1.00375
1.00237
1.00052
0.997805
1.00237
0.999194
0.997805
1.00077
0.999194
0.999445
1.00077
1.00096
0.999445
0.999171
1.00096
1.00148
0.999171
0.999255
1.00148
1.0014
0.997805
0.998437
1.00362
1.00086
0.998437
1.00077
1.00086
0.996431
1.00077
1.00096
0.996431
0.996498
1.00096
1.00148
0.996498
0.997657
1.00148
1.0014
0.997657
0.997713
1.00362
1.00086
0.988611
0.996055
1.00086
0.996431
0.996055
1.00065
0.996431
0.995377
1.00065
1.00025
0.995377
0.996498
1.00025
1.00336
0.996498
0.997337
1.00336
1.00444
0.997337
0.997657
1.00444
1.0049
0.997657
0.997739
1.0049
1.00585
0.997739
0.997713
1.00585
1.00615
1.00065
1.00025
0.988368
0.989041
1.00025
1.00336
0.989041
0.993486
1.00336
1.00444
0.993486
0.993245
1.00444
1.0049
0.993245
0.99258
1.0049
1.00585
0.99258
0.992573
1.00585
1.00615
0.992573
0.99272
1.00615
1.00542
0.99272
0.992598
0.0542101
0.0758387
0.013084
0.0198029
0.840565
0.783713
0.490257
0.251824
0.783713
0.725335
0.251824
0.134257
0.604393
0.73507
0.478675
0.510076
0.73507
0.840565
0.510076
0.490257
0.510076
0.490257
0.0766464
0.0847521
0.478675
0.510076
0.0758387
0.0766464
0.552358
0.642627
0.19454
0.361927
0.642627
0.604393
0.361927
0.478675
0.361927
0.478675
0.0542101
0.0758387
0.19454
0.361927
0.0242329
0.0542101
0.179473
0.552358
0.0427091
0.19454
0.99258
0.992573
0.74561
0.749967
0.992573
0.99272
0.749967
0.750021
0.993486
0.993246
0.725335
0.729469
0.993245
0.99258
0.729469
0.74561
0.988368
0.989041
0.840565
0.783713
0.989041
0.993485
0.783713
0.725335
0.888591
0.955827
0.645199
0.847773
0.645199
0.847773
0.604393
0.73507
0.955827
0.988368
0.847773
0.974291
0.847773
0.974291
0.73507
0.840565
0.748548
0.878913
0.716428
0.6978
0.878913
0.888591
0.6978
0.645199
0.6978
0.645199
0.642626
0.604393
0.716428
0.6978
0.552358
0.642626
0.0227802
0.213752
0.00816465
0.273734
0.213752
0.748548
0.273734
0.716428
0.273734
0.716428
0.179473
0.552358
0.00816465
0.273734
-0.00709035
0.179473
0.00181166
0.0227802
0.00499418
0.00816465
0.988611
0.996055
0.888591
0.955827
0.996055
1.00065
0.955827
0.988368
0.82444
0.972303
0.643141
0.939217
0.643141
0.939217
0.748548
0.878913
0.972303
0.988611
0.939217
0.996395
0.939217
0.996395
0.878913
0.888591
0.20746
0.321189
0.0371344
0.108551
0.321189
0.82444
0.108551
0.643141
0.108551
0.643141
0.213752
0.748548
0.0371344
0.108551
0.0227802
0.213752
0.204568
0.289184
0.0230626
0.0411703
0.289184
0.20746
0.0411703
0.0371344
0.0411703
0.0371344
0.00181166
0.0227802
0.984885
1.00083
0.944494
0.985192
0.944494
0.985192
0.82444
0.972303
1.00083
1.00362
0.985192
0.990941
0.985192
0.990941
0.972303
0.988611
0.880855
0.948857
0.640369
0.770432
0.948857
0.984885
0.770432
0.944494
0.770432
0.944494
0.321189
0.82444
0.640369
0.770432
0.20746
0.321189
0.583614
0.718903
0.545321
0.657692
0.718903
0.880855
0.657692
0.640369
0.657692
0.640369
0.289184
0.20746
0.545321
0.657692
0.204568
0.289184
1.00032
1.00052
0.984885
1.00083
1.00052
0.997805
1.00083
1.00362
0.973535
0.9954
0.941884
0.985857
0.941884
0.985857
0.880855
0.948857
0.9954
1.00032
0.985857
0.998159
0.985857
0.998159
0.948857
0.984885
0.744711
0.919602
0.609686
0.7906
0.919602
0.973535
0.7906
0.941884
0.7906
0.941884
0.718903
0.880855
0.609686
0.7906
0.583614
0.718903
0.64854
0.74471
0.606412
0.609686
0.977548
0.996276
0.987593
1.00023
0.987593
1.00023
0.973535
0.9954
0.996276
1.00183
1.00023
1.00126
1.00023
1.00126
0.9954
1.00032
0.347246
0.827961
0.837713
0.959628
0.827961
0.977548
0.959628
0.987593
0.959628
0.987593
0.919602
0.973535
0.837713
0.959628
0.74471
0.919602
-0.0014706
0.0377531
0.161799
0.556648
0.0377531
0.347246
0.556648
0.837713
0.556647
0.837713
0.64854
0.74471
0.888437
0.989018
0.93233
0.998501
0.93233
0.998501
0.977548
0.996276
0.989018
0.999917
0.998501
1.00112
0.998501
1.00112
0.996276
1.00183
0.0183143
0.266942
0.0305617
0.407652
0.266942
0.888437
0.407652
0.93233
0.407652
0.93233
0.827961
0.977548
0.0305617
0.407652
0.347246
0.827961
0.0275531
0.0305617
0.0377531
0.347246
0.876719
0.990112
0.881032
0.988924
0.881032
0.988924
0.888437
0.989018
0.990112
1.00057
0.988924
0.999396
0.988924
0.999396
0.989018
0.999917
0.241263
0.876719
0.249643
0.881032
0.249643
0.881032
0.266942
0.888437
0.00936343
0.249643
0.0183143
0.266942
0.892542
0.986598
0.880212
0.985633
0.880212
0.985633
0.876719
0.990112
0.986598
1.00503
0.985633
1.00355
0.985633
1.00355
0.990112
1.00057
0.27443
0.892542
0.248171
0.880212
0.248171
0.880212
0.241263
0.876719
0.987682
1.00038
0.9551
0.996577
0.9551
0.996577
0.892542
0.986598
0.919441
0.987682
0.566846
0.9551
0.566846
0.9551
0.27443
0.892542
1.00542
1.00536
0.992598
0.9929
6.21618e-05
0.000198376
4.32989e-05
-0.00017367
5.10425e-05
2.61195e-05
-0.000355584
-0.00031055
2.61195e-05
0.00016439
-0.00031055
-0.000127678
0.00016439
0.000171364
-0.000127678
3.18874e-05
0.000171364
-2.06081e-05
3.18874e-05
-8.87669e-05
-2.06081e-05
-7.59747e-05
-8.87669e-05
-0.000115202
-7.59747e-05
5.59696e-05
-0.000115202
-9.31718e-05
5.59696e-05
8.00774e-06
-9.31718e-05
-6.63698e-05
8.00774e-06
3.4975e-05
-6.63698e-05
-1.46914e-05
3.4975e-05
5.61685e-06
-1.46914e-05
1.76726e-05
5.61685e-06
-1.97791e-05
1.76726e-05
1.86026e-05
-1.97791e-05
-1.96289e-05
1.86026e-05
1.07939e-05
-1.96289e-05
-2.13262e-05
1.07939e-05
1.60137e-05
-0.000355585
-0.00031055
0.000214522
0.000188377
-0.00031055
-0.000127678
0.000188377
0.000108819
-0.000127678
3.18874e-05
0.000108819
3.78407e-05
3.18874e-05
-8.87669e-05
3.78407e-05
-1.23305e-05
-8.87669e-05
-0.000115202
-1.23305e-05
-4.11423e-05
-0.000115202
-9.31718e-05
-4.11423e-05
-4.49835e-05
-9.31718e-05
-6.63698e-05
-4.49835e-05
-2.51442e-05
-6.63698e-05
-1.46914e-05
-2.51442e-05
-5.57879e-06
-1.46914e-05
1.76726e-05
-5.57879e-06
-6.80069e-06
1.76726e-05
1.86027e-05
-6.80069e-06
-1.28952e-05
1.86026e-05
1.07939e-05
-1.28952e-05
-6.96853e-06
1.07939e-05
1.60137e-05
-6.96853e-06
-4.63891e-06
0.000214522
0.000108819
-0.000112553
-4.89237e-05
0.000108819
-1.23305e-05
-4.89237e-05
3.29815e-06
-1.23305e-05
-4.49835e-05
3.29815e-06
5.67729e-06