# vtk DataFile Version 2.0
Hex test
ASCII
DATASET UNSTRUCTURED_GRID
POINTS 8800 float
42 -12 0
42 -8.16667 0
44 -12 0
44 -8.16667 0
42 -8.16667 0
42 -6 0
44 -8.16667 0
44 -6 0
42 -6 0
42 -4 0
44 -6 0
44 -4 0
42 -4 0
42 -2 0
44 -4 0
44 -2 0
42 -2 0
42 -2.77556e-17 0
44 -2 0
44 -2.77556e-17 0
42 3.46945e-17 0
42 2 0
44 2.77556e-17 0
44 2 0
42 2 0
42 3 0
44 2 0
44 3 0
42 3 0
42 4 0
44 3 0
44 4 0
42 4 0
42 5 0
44 4 0
44 5 0
42 5 0
42 6 0
44 5 0
44 6 0
44 -12 0
44 -8.16667 0
46 -12 0
46 -8.16667 0
44 -8.16667 0
44 -6 0
46 -8.16667 0
46 -6 0
44 -6 0
44 -4 0
46 -6 0
46 -4 0
44 -4 0
44 -2 0
46 -4 0
46 -2 0
44 -2 0
44 -2.77556e-17 0
46 -2 0
46 -2.77556e-17 0
44 2.77556e-17 0
44 2 0
46 2.77556e-17 0
46 2 0
44 2 0
44 4 0
46 2 0
46 4 0
44 4 0
44 5 0
46 4 0
46 5 0
44 5 0
44 6 0
46 5 0
46 6 0
44 6 0
44 7 0
46 6 0
46 7 0
44 7 0
44 8 0
46 7 0
46 8 0
46 -12 0
46 -8.16667 0
48 -12 0
48 -8.16667 0
46 -8.16667 0
46 -6 0
48 -8.16667 0
48 -6 0
46 -6 0
46 -4 0
48 -6 0
48 -4 0
46 -4 0
46 -2 0
48 -4 0
48 -2 0
46 -2 0
46 -2.77556e-17 0
48 -2 0
48 -2.77556e-17 0
46 2.77556e-17 0
46 2 0
48 2.77556e-17 0
48 2 0
46 2 0
46 4 0
48 2 0
48 4 0
46 4 0
46 6 0
48 4 0
48 6 0
46 6 0
46 7 0
48 6 0
48 7 0
46 7 0
46 8 0
48 7 0
48 8 0
46 8 0
46 9 0
48 8 0
48 9 0
46 9 0
46 10 0
48 9 0
48 10 0
46 10 0
46 11 0
48 10 0
48 11 0
46 11 0
46 12 0
48 11 0
48 12 0
48 -12 0
48 -8.16667 0
50 -12 0
50 -8.16667 0
48 -8.16667 0
48 -6 0
50 -8.16667 0
50 -6 0
48 -6 0
48 -4 0
50 -6 0
50 -4 0
48 -4 0
48 -2 0
50 -4 0
50 -2 0
48 -2 0
48 -2.77556e-17 0
50 -2 0
50 -2.77556e-17 0
48 2.77556e-17 0
48 2 0
50 2.77556e-17 0
50 2 0
48 2 0
48 4 0
50 2 0
50 4 0
48 4 0
48 6 0
50 4 0
50 6 0
48 6 0
48 8 0
50 6 0
50 8 0
48 8 0
48 9 0
50 8 0
50 9 0
48 9 0
48 10 0
50 9 0
50 10 0
48 10 0
48 11 0
50 10 0
50 11 0
48 11 0
48 12 0
50 11 0
50 12 0
50 -12 0
50 -8.16667 0
52 -12 0
52 -8.16667 0
50 -8.16667 0
50 -6 0
52 -8.16667 0
52 -6 0
50 -6 0
50 -4 0
52 -6 0
52 -4 0
50 -4 0
50 -2 0
52 -4 0
52 -2 0
50 -2 0
50 -2.77556e-17 0
52 -2 0
52 -2.77556e-17 0
50 2.77556e-17 0
50 2 0
52 2.77556e-17 0
52 2 0
50 2 0
50 4 0
52 2 0
52 4 0
50 4 0
50 6 0
52 4 0
52 6 0
50 6 0
50 8 0
52 6 0
52 8 0
50 8 0
50 10 0
52 8 0
52 10 0
50 10 0
50 12 0
52 10 0
52 12 0
52 -12 0
52 -8.16667 0
54 -12 0
54 -8.16667 0
52 -8.16667 0
52 -6 0
54 -8.16667 0
54 -6 0
52 -6 0
52 -4 0
54 -6 0
54 -4 0
52 -4 0
52 -2 0
54 -4 0
54 -2 0
52 -2 0
52 -2.77556e-17 0
54 -2 0
54 -2.77556e-17 0
52 2.77556e-17 0
52 2 0
54 2.77556e-17 0
54 2 0
52 2 0
52 4 0
54 2 0
54 4 0
52 4 0
52 6 0
54 4 0
54 6 0
52 6 0
52 8 0
54 6 0
54 8 0
52 8 0
52 10 0
54 8 0
54 10 0
52 10 0
52 12 0
54 10 0
54 12 0
54 -12 0
54 -8.16667 0
56.1667 -12 0
56.1667 -8.16667 0
54 -8.16667 0
54 -6 0
56.1667 -8.16667 0
56.1667 -6 0
54 -6 0
54 -4 0
56.1667 -6 0
56.1667 -4 0
54 -4 0
54 -2 0
56.1667 -4 0
56.1667 -2 0
54 -2 0
54 -2.77556e-17 0
56.1667 -2 0
56.1667 0 0
54 2.77556e-17 0
54 2 0
56.1667 0 0
56.1667 2 0
54 2 0
54 4 0
56.1667 2 0
56.1667 4 0
54 4 0
54 6 0
56.1667 4 0
56.1667 6 0
54 6 0
54 8 0
56.1667 6 0
56.1667 8 0
54 8 0
54 10 0
56.1667 8 0
56.1667 10 0
54 10 0
54 12 0
56.1667 10 0
56.1667 12 0
56.1667 -12 0
56.1667 -8.16667 0
60 -12 0
60 -8.16667 0
56.1667 -8.16667 0
56.1667 -6 0
60 -8.16667 0
60 -6 0
56.1667 -6 0
56.1667 -4 0
60 -6 0
60 -4 0
56.1667 -4 0
56.1667 -2 0
60 -4 0
60 -2 0
56.1667 -2 0
56.1667 6.93889e-17 0
60 -2 0
60 0 0
56.1667 -1.38778e-17 0
56.1667 2 0
60 0 0
60 2 0
56.1667 2 0
56.1667 4 0
60 2 0
60 4 0
56.1667 4 0
56.1667 6 0
60 4 0
60 6 0
56.1667 6 0
56.1667 8 0
60 6 0
60 8 0
56.1667 8 0
56.1667 10 0
60 8 0
60 10 0
56.1667 10 0
56.1667 12 0
60 10 0
60 12 0
56.1667 12 0
56.1667 14 0
60 12 0
60 14 0
44 10 0
44 11 0
46 10 0
46 11 0
44 11 0
44 12 0
46 11 0
46 12 0
44 8 0
44 9 0
46 8 0
46 9 0
44 9 0
44 10 0
46 9 0
46 10 0
42 12 0
42 13 0
43 12 0
43 13 0
43 12 0
43 13 0
44 12 0
44 13 0
42 10 0
42 11 0
43 10 0
43 11 0
42 11 0
42 12 0
43 11 0
43 12 0
43 11 0
43 12 0
44 11 0
44 12 0
43 10 0
43 11 0
44 10 0
44 11 0
42 8 0
42 9 0
43 8 0
43 9 0
43 8 0
43 9 0
44 8 0
44 9 0
42 9 0
42 10 0
43 9 0
43 10 0
43 9 0
43 10 0
44 9 0
44 10 0
42 6 0
42 7 0
44 6 0
44 7 0
42 7 0
42 8 0
44 7 0
44 8 0
41 12 0
41 13 0
42 12 0
42 13 0
40 10 0
40 11 0
41 10 0
41 11 0
40 11 0
40 12 0
41 11 0
41 12 0
41 11 0
41 12 0
42 11 0
42 12 0
41 10 0
41 11 0
42 10 0
42 11 0
40 8 0
40 9 0
41 8 0
41 9 0
40 9 0
40 10 0
41 9 0
41 10 0
41 9 0
41 10 0
42 9 0
42 10 0
41 8 0
41 9 0
42 8 0
42 9 0
40 6 0
40 7 0
41 6 0
41 7 0
41 6 0
41 7 0
42 6 0
42 7 0
40 7 0
40 8 0
41 7 0
41 8 0
41 7 0
41 8 0
42 7 0
42 8 0
40 4 0
40 5 0
42 4 0
42 5 0
40 5 0
40 6 0
42 5 0
42 6 0
39 10 0
39 11 0
40 10 0
40 11 0
38 8 0
38 9 0
39 8 0
39 9 0
38 9 0
38 10 0
39 9 0
39 10 0
39 9 0
39 10 0
40 9 0
40 10 0
39 8 0
39 9 0
40 8 0
40 9 0
38 6 0
38 7 0
39 6 0
39 7 0
38 7 0
38 8 0
39 7 0
39 8 0
39 7 0
39 8 0
40 7 0
40 8 0
39 6 0
39 7 0
40 6 0
40 7 0
38 5 0
38 6 0
39 5 0
39 6 0
39 5 0
39 6 0
40 5 0
40 6 0
37 8 0
37 9 0
38 8 0
38 9 0
37 7 0
37 8 0
38 7 0
38 8 0
26 -12 0
26 -8.16667 0
28 -12 0
28 -8.16667 0
26 -8.16667 0
26 -6 0
28 -8.16667 0
28 -6 0
26 -6 0
26 -4 0
28 -6 0
28 -4 0
26 -4 0
26 -2 0
28 -4 0
28 -2 0
26 -2 0
26 6.93889e-18 0
28 -2 0
28 6.93889e-18 0
26 3.46945e-17 0
26 2 0
28 3.46945e-17 0
28 2 0
28 -12 0
28 -8.16667 0
30 -12 0
30 -8.16667 0
28 -8.16667 0
28 -6 0
30 -8.16667 0
30 -6 0
28 -6 0
28 -4 0
30 -6 0
30 -4 0
28 -4 0
28 -2 0
30 -4 0
30 -2 0
28 -2 0
28 6.93889e-18 0
30 -2 0
30 6.93889e-18 0
28 3.46945e-17 0
28 2 0
30 3.46945e-17 0
30 2 0
30 -12 0
30 -8.16667 0
32 -12 0
32 -8.16667 0
30 -8.16667 0
30 -6 0
32 -8.16667 0
32 -6 0
30 -6 0
30 -4 0
32 -6 0
32 -4 0
30 -4 0
30 -2 0
32 -4 0
32 -2 0
30 -2 0
30 6.93889e-18 0
32 -2 0
32 6.93889e-18 0
30 3.46945e-17 0
30 2 0
32 3.46945e-17 0
32 2 0
32 -12 0
32 -8.16667 0
34 -12 0
34 -8.16667 0
32 -8.16667 0
32 -6 0
34 -8.16667 0
34 -6 0
32 -6 0
32 -4 0
34 -6 0
34 -4 0
32 -4 0
32 -2 0
34 -4 0
34 -2 0
32 -2 0
32 6.93889e-18 0
34 -2 0
34 6.93889e-18 0
32 3.46945e-17 0
32 2 0
34 3.46945e-17 0
34 2 0
34 -12 0
34 -8.16667 0
36 -12 0
36 -8.16667 0
34 -8.16667 0
34 -6 0
36 -8.16667 0
36 -6 0
34 -6 0
34 -4 0
36 -6 0
36 -4 0
34 -4 0
34 -2 0
36 -4 0
36 -2 0
34 -2 0
34 6.93889e-18 0
36 -2 0
36 6.93889e-18 0
34 3.46945e-17 0
34 2 0
36 3.46945e-17 0
36 2 0
36 -12 0
36 -8.16667 0
38 -12 0
38 -8.16667 0
36 -8.16667 0
36 -6 0
38 -8.16667 0
38 -6 0
36 -6 0
36 -4 0
38 -6 0
38 -4 0
36 -4 0
36 -2 0
38 -4 0
38 -2 0
36 -2 0
36 6.93889e-18 0
38 -2 0
38 6.93889e-18 0
36 3.46945e-17 0
36 2 0
38 3.46945e-17 0
38 2 0
38 -12 0
38 -8.16667 0
40 -12 0
40 -8.16667 0
38 -8.16667 0
38 -6 0
40 -8.16667 0
40 -6 0
38 -6 0
38 -4 0
40 -6 0
40 -4 0
38 -4 0
38 -2 0
40 -4 0
40 -2 0
38 -2 0
38 6.93889e-18 0
40 -2 0
40 0 0
38 3.46945e-17 0
38 2 0
40 2.77556e-17 0
40 2 0
40 -12 0
40 -8.16667 0
42 -12 0
42 -8.16667 0
40 -8.16667 0
40 -6 0
42 -8.16667 0
42 -6 0
40 -6 0
40 -4 0
42 -6 0
42 -4 0
40 -4 0
40 -2 0
42 -4 0
42 -2 0
40 -2 0
40 0 0
42 -2 0
42 -2.77556e-17 0
40 3.46945e-17 0
40 2 0
42 2.77556e-17 0
42 2 0
40 2 0
40 3 0
42 2 0
42 3 0
40 3 0
40 4 0
42 3 0
42 4 0
38 4 0
38 5 0
39 4 0
39 5 0
39 4 0
39 5 0
40 4 0
40 5 0
38 2 0
38 3 0
40 2 0
40 3 0
38 3 0
38 4 0
40 3 0
40 4 0
36 8 0
36 9 0
37 8 0
37 9 0
36 6 0
36 7 0
37 6 0
37 7 0
36 7 0
36 8 0
37 7 0
37 8 0
37 6 0
37 7 0
38 6 0
38 7 0
36 4 0
36 5 0
37 4 0
37 5 0
36 5 0
36 6 0
37 5 0
37 6 0
37 5 0
37 6 0
38 5 0
38 6 0
37 4 0
37 5 0
38 4 0
38 5 0
36 2 0
36 3 0
37 2 0
37 3 0
37 2 0
37 3 0
38 2 0
38 3 0
36 3 0
36 4 0
37 3 0
37 4 0
37 3 0
37 4 0
38 3 0
38 4 0
34 8 0
34 9 0
35 8 0
35 9 0
35 8 0
35 9 0
36 8 0
36 9 0
34 6 0
34 7 0
35 6 0
35 7 0
34 7 0
34 8 0
35 7 0
35 8 0
35 7 0
35 8 0
36 7 0
36 8 0
35 6 0
35 7 0
36 6 0
36 7 0
34 4 0
34 5 0
35 4 0
35 5 0
34 5 0
34 6 0
35 5 0
35 6 0
35 5 0
35 6 0
36 5 0
36 6 0
35 4 0
35 5 0
36 4 0
36 5 0
34 2 0
34 3 0
35 2 0
35 3 0
35 2 0
35 3 0
36 2 0
36 3 0
34 3 0
34 4 0
35 3 0
35 4 0
35 3 0
35 4 0
36 3 0
36 4 0
32 8 0
32 9 0
33 8 0
33 9 0
33 8 0
33 9 0
34 8 0
34 9 0
32 6 0
32 7 0
33 6 0
33 7 0
32 7 0
32 8 0
33 7 0
33 8 0
33 7 0
33 8 0
34 7 0
34 8 0
33 6 0
33 7 0
34 6 0
34 7 0
32 4 0
32 5 0
33 4 0
33 5 0
32 5 0
32 6 0
33 5 0
33 6 0
33 5 0
33 6 0
34 5 0
34 6 0
33 4 0
33 5 0
34 4 0
34 5 0
32 2 0
32 3 0
33 2 0
33 3 0
33 2 0
33 3 0
34 2 0
34 3 0
32 3 0
32 4 0
33 3 0
33 4 0
33 3 0
33 4 0
34 3 0
34 4 0
30 8 0
30 9 0
31 8 0
31 9 0
31 8 0
31 9 0
32 8 0
32 9 0
30 6 0
30 7 0
31 6 0
31 7 0
30 7 0
30 8 0
31 7 0
31 8 0
31 7 0
31 8 0
32 7 0
32 8 0
31 6 0
31 7 0
32 6 0
32 7 0
30 4 0
30 5 0
31 4 0
31 5 0
30 5 0
30 6 0
31 5 0
31 6 0
31 5 0
31 6 0
32 5 0
32 6 0
31 4 0
31 5 0
32 4 0
32 5 0
30 2 0
30 3 0
31 2 0
31 3 0
31 2 0
31 3 0
32 2 0
32 3 0
30 3 0
30 4 0
31 3 0
31 4 0
31 3 0
31 4 0
32 3 0
32 4 0
29 8 0
29 9 0
30 8 0
30 9 0
28 6 0
28 7 0
29 6 0
29 7 0
28 7 0
28 8 0
29 7 0
29 8 0
29 7 0
29 8 0
30 7 0
30 8 0
29 6 0
29 7 0
30 6 0
30 7 0
28 4 0
28 5 0
29 4 0
29 5 0
28 5 0
28 6 0
29 5 0
29 6 0
29 5 0
29 6 0
30 5 0
30 6 0
29 4 0
29 5 0
30 4 0
30 5 0
28 2 0
28 3 0
29 2 0
29 3 0
29 2 0
29 3 0
30 2 0
30 3 0
28 3 0
28 4 0
29 3 0
29 4 0
29 3 0
29 4 0
30 3 0
30 4 0
26 6 0
26 7 0
27 6 0
27 7 0
26 7 0
26 8 0
27 7 0
27 8 0
27 7 0
27 8 0
28 7 0
28 8 0
27 6 0
27 7 0
28 6 0
28 7 0
26 4 0
26 5 0
27 4 0
27 5 0
26 5 0
26 6 0
27 5 0
27 6 0
27 5 0
27 6 0
28 5 0
28 6 0
27 4 0
27 5 0
28 4 0
28 5 0
26 2 0
26 3 0
27 2 0
27 3 0
27 2 0
27 3 0
28 2 0
28 3 0
26 3 0
26 4 0
27 3 0
27 4 0
27 3 0
27 4 0
28 3 0
28 4 0
24 12 0
24 13 0
26 12 0
26 13 0
24 13 0
24 14 0
26 13 0
26 14 0
24 14 0
24 16 0
26 14 0
26 16 0
26 12 0
26 13 0
28 12 0
28 13 0
26 13 0
26 14 0
28 13 0
28 14 0
26 14 0
26 16 0
28 14 0
28 16 0
26 16 0
26 18 0
28 16 0
28 18 0
26 18 0
26 20 0
28 18 0
28 20 0
26 20 0
26 22 0
28 20 0
28 22 0
28 14 0
28 16 0
30 14 0
30 16 0
28 16 0
28 18 0
30 16 0
30 18 0
28 18 0
28 20 0
30 18 0
30 20 0
28 20 0
28 22 0
30 20 0
30 22 0
30 14 0
30 15 0
32 14 0
32 15 0
30 15 0
30 16 0
32 15 0
32 16 0
30 16 0
30 17 0
32 16 0
32 17 0
30 17 0
30 18 0
32 17 0
32 18 0
30 18 0
30 20 0
32 18 0
32 20 0
30 20 0
30 22 0
32 20 0
32 22 0
32 14 0
32 15 0
34 14 0
34 15 0
32 15 0
32 16 0
34 15 0
34 16 0
32 16 0
32 17 0
34 16 0
34 17 0
[...]
POINT_DATA 8800
SCALARS phi float 1
LOOKUP_TABLE default
6.59332e-08
3.9908e-07
-3.36327e-09
-2.29793e-09
3.9908e-07
3.07733e-07
-2.29793e-09
-4.37715e-09
3.07732e-07
-1.12845e-06
-4.37716e-09
9.75426e-09
-1.12845e-06
2.44114e-06
9.7543e-09
-1.91558e-07
2.44114e-06
-1.57755e-06
-1.91558e-07
-2.97067e-07
-1.57755e-06
2.78362e-07
-2.97067e-07
1.90378e-06
2.7836e-07
-1.97036e-05
1.90378e-06
3.22656e-06
-1.97036e-05
-2.24483e-05
3.22656e-06
-3.29967e-06
-2.24483e-05
-8.41317e-06
-3.29967e-06
-1.92496e-05
-8.41317e-06
-2.8927e-05
-1.92496e-05
-1.21618e-05
-3.36327e-09
-2.29793e-09
-5.43769e-09
4.84265e-10
-2.29793e-09
-4.37714e-09
4.84266e-10
1.99266e-08
-4.37715e-09
9.75426e-09
1.99266e-08
-4.55034e-08
9.75424e-09
-1.91558e-07
-4.55035e-08
2.40386e-07
-1.91558e-07
-2.97067e-07
2.40386e-07
8.55195e-08
-2.97067e-07
1.90378e-06
8.55195e-08
-8.8959e-07
1.90378e-06
-3.29967e-06
-8.89591e-07
3.81997e-07
-3.29967e-06
-1.92496e-05
3.81998e-07
7.53683e-06
-1.92496e-05
-1.21618e-05
7.53683e-06
6.08388e-06
-1.21618e-05
3.72346e-05
6.08388e-06
-1.00109e-05
3.72346e-05
2.6108e-05
-1.00109e-05
-3.39529e-06
-5.43769e-09
4.84269e-10
9.14117e-08
9.77645e-08
4.84264e-10
1.99267e-08
9.77645e-08
-1.33144e-07
1.99266e-08
-4.55034e-08
-1.33144e-07
2.11251e-07
-4.55034e-08
2.40386e-07
2.11251e-07
-3.73695e-07
2.40386e-07
8.55195e-08
-3.73695e-07
6.82677e-07
8.55195e-08
-8.89591e-07
6.82677e-07
-9.65473e-07
-8.89591e-07
3.81998e-07
-9.65473e-07
2.60808e-06
3.81998e-07
6.08388e-06
2.60808e-06
-6.75645e-06
6.08388e-06
-1.00109e-05
-6.75645e-06
1.73331e-05
-1.00109e-05
-3.39529e-06
1.73331e-05
2.21193e-05
-3.39529e-06
4.04521e-05
2.21193e-05
-2.66716e-05
4.04521e-05
3.17203e-05
-2.66716e-05
-5.13957e-05
3.17203e-05
-2.11774e-05
-5.13958e-05
8.8036e-05
-2.11774e-05
-5.85228e-05
8.8036e-05
0.000225628
9.14117e-08
9.77645e-08
-2.34995e-08
-5.82554e-08
9.77645e-08
-1.33144e-07
-5.82554e-08
-6.3854e-09
-1.33144e-07
2.11251e-07
-6.3854e-09
7.13934e-08
2.11251e-07
-3.73695e-07
7.13933e-08
-2.37841e-07
-3.73695e-07
6.82677e-07
-2.37841e-07
5.3836e-08
6.82677e-07
-9.65473e-07
5.3836e-08
-1.36985e-07
-9.65473e-07
2.60808e-06
-1.36985e-07
-3.7192e-07
2.60808e-06
-6.75645e-06
-3.7192e-07
1.38436e-07
-6.75645e-06
2.21193e-05
1.38435e-07
-4.25712e-06
2.21193e-05
-2.66716e-05
-4.25712e-06
8.23339e-06
-2.66716e-05
-5.13958e-05
8.23339e-06
8.99597e-06
-5.13958e-05
8.8036e-05
8.99598e-06
-1.89796e-05
8.8036e-05
0.000225628
-1.89796e-05
-3.77314e-05
-2.34995e-08
-5.82554e-08
1.43459e-08
2.41023e-08
-5.82554e-08
-6.3854e-09
2.41023e-08
-9.86124e-09
-6.3854e-09
7.13933e-08
-9.86123e-09
-6.97913e-10
7.13933e-08
-2.37841e-07
-6.97914e-10
2.19158e-08
-2.37841e-07
5.3836e-08
2.19158e-08
3.61754e-08
5.3836e-08
-1.36985e-07
3.61754e-08
3.44658e-10
-1.36985e-07
-3.71919e-07
3.4469e-10
2.91014e-07
-3.71919e-07
1.38435e-07
2.91014e-07
-6.86455e-07
1.38436e-07
-4.25712e-06
-6.86455e-07
3.17167e-06
-4.25712e-06
8.99598e-06
3.17167e-06
-6.86518e-06
8.99597e-06
-3.77314e-05
-6.86518e-06
3.07791e-05
1.43459e-08
2.41023e-08
-7.42481e-09
-9.44123e-09
2.41023e-08
-9.86124e-09
-9.44123e-09
8.75208e-09
-9.86124e-09
-6.97915e-10
8.75208e-09
-1.11575e-08
-6.97918e-10
2.19158e-08
-1.11575e-08
1.44977e-08
2.19158e-08
3.61754e-08
1.44977e-08
-4.20537e-08
3.61754e-08
3.44729e-10
-4.20537e-08
3.34675e-08
3.44706e-10
2.91014e-07
3.34675e-08
-2.10314e-07
2.91014e-07
-6.86455e-07
-2.10314e-07
6.56014e-07
-6.86456e-07
3.17167e-06
6.56014e-07
-2.02547e-06
3.17167e-06
-6.86518e-06
-2.02547e-06
4.62853e-06
-6.86518e-06
3.0779e-05
4.62853e-06
-1.77341e-05
-7.42481e-09
-9.44123e-09
3.24259e-09
-1.5889e-09
-9.44123e-09
8.75208e-09
-1.5889e-09
-1.07243e-08
8.75208e-09
-1.11575e-08
-1.07243e-08
2.65768e-08
-1.11575e-08
1.44977e-08
2.65768e-08
-5.54962e-08
1.44977e-08
-4.20537e-08
-5.54962e-08
6.03918e-08
-4.20537e-08
3.34675e-08
6.03917e-08
-7.51921e-08
3.34675e-08
-2.10314e-07
-7.5192e-08
1.87821e-07
-2.10314e-07
6.56014e-07
1.8782e-07
-8.3457e-07
6.56014e-07
-2.02547e-06
-8.34569e-07
1.54755e-06
-2.02547e-06
4.62853e-06
1.54755e-06
-3.84949e-06
4.62853e-06
-1.77341e-05
-3.84949e-06
1.0578e-05
3.24259e-09
-1.5889e-09
3.7399e-09
2.63876e-09
-1.5889e-09
-1.07243e-08
2.63876e-09
-7.00081e-09
-1.07243e-08
2.65768e-08
-7.00081e-09
1.37585e-08
2.65768e-08
-5.54962e-08
1.37585e-08
-2.55492e-08
-5.54962e-08
6.03917e-08
-2.55492e-08
3.70937e-08
6.03917e-08
-7.5192e-08
3.70937e-08
-3.77304e-08
-7.51921e-08
1.8782e-07
-3.77304e-08
1.47751e-07
1.8782e-07
-8.3457e-07
1.47751e-07
-5.74013e-07
-8.34569e-07
1.54755e-06
-5.74013e-07
1.38598e-06
1.54755e-06
-3.84949e-06
1.38598e-06
-3.15033e-06
-3.84949e-06
1.0578e-05
-3.15033e-06
1.07739e-05
1.0578e-05
-7.59692e-06
1.07739e-05
-7.99779e-06
-1.80702e-05
-1.1799e-05
3.17203e-05
-2.11774e-05
-1.17989e-05
4.31707e-05
-2.11774e-05
-5.85228e-05
2.6108e-05
-5.06533e-05
-3.39529e-06
4.04521e-05
-5.06532e-05
-1.80702e-05
4.04521e-05
3.17203e-05
0.00035288
0.00365884
-0.000160111
-0.00134332
-0.000160111
-0.00134332
4.31707e-05
-0.000217318
-8.53726e-05
0.00044682
-9.18709e-05
-0.000117061
0.000446821
0.00035288
-0.000117061
-0.000160111
-0.000117061
-0.000160111
-1.17989e-05
4.31707e-05
-9.18709e-05
-0.000117061
-1.80702e-05
-1.17989e-05
6.22664e-06
-9.87917e-05
-2.62164e-05
0.00013207
-2.62164e-05
0.00013207
2.6108e-05
-5.06532e-05
-9.87917e-05
-8.53726e-05
0.00013207
-9.18709e-05
0.00013207
-9.18709e-05
-5.06532e-05
-1.80702e-05
-2.8927e-05
-4.57098e-05
-1.21618e-05
3.72346e-05
-4.57098e-05
6.22663e-06
3.72346e-05
2.6108e-05
-0.000551638
-0.00604565
0.00035288
0.00365884
-0.000218462
0.00208366
0.000115553
-0.000844531
0.00208366
0.00433846
-0.000844531
-0.000551638
-0.000844531
-0.000551638
0.000446821
0.00035288
0.000115553
-0.000844531
-8.53726e-05
0.000446821
-0.000138469
0.000324607
2.94362e-05
-0.0001789
0.000324607
-0.000218461
-0.0001789
0.000115553
-0.0001789
0.000115553
-9.87917e-05
-8.53726e-05
2.94362e-05
-0.0001789
6.22664e-06
-9.87917e-05
-6.60646e-06
-4.42593e-05
-5.14631e-05
0.00013952
-5.14631e-05
0.00013952
-2.8927e-05
-4.57097e-05
-4.42593e-05
-0.000138469
0.00013952
2.94362e-05
0.00013952
2.94362e-05
-4.57097e-05
6.22663e-06
-1.0555e-05
-4.97673e-05
-2.24483e-05
-8.41316e-06
-4.97673e-05
-6.60648e-06
-8.41316e-06
-2.8927e-05
0.00125323
0.000535335
-0.000218462
0.00208366
0.000692221
-0.00124436
0.000792838
-0.00125792
-0.00124436
0.00420451
-0.00125792
0.00125323
-0.00125792
0.00125323
0.000324607
-0.000218461
0.000792838
-0.00125792
-0.000138469
0.000324607
0.000120505
-0.000143538
2.4921e-05
0.000207701
-0.000143538
0.000692221
0.000207701
0.000792838
0.000207701
0.000792838
-4.42593e-05
-0.000138469
2.4921e-05
0.000207701
-6.60647e-06
-4.42593e-05
-0.000471829
0.000120505
2.93556e-05
2.4921e-05
2.93556e-05
2.4921e-05
-4.97673e-05
-6.60647e-06
0.00487559
-0.00861831
0.000692221
-0.00124436
-0.00217732
0.00487559
-0.000143538
0.000692221
1.09689e-05
1.48665e-05
-3.74044e-06
-5.97839e-06
1.48665e-05
-1.19795e-05
-5.97839e-06
2.82426e-06
-1.19795e-05
1.16072e-05
2.82426e-06
-4.5992e-06
1.16072e-05
-3.53701e-05
-4.5992e-06
-0.00012894
-3.53701e-05
4.99633e-05
-0.00012894
-5.45471e-05
4.99633e-05
1.75234e-05
-5.45472e-05
3.40199e-05
-3.74044e-06
-5.97839e-06
2.71277e-05
1.88888e-05
-5.97839e-06
2.82426e-06
1.88888e-05
-5.11944e-05
2.82426e-06
-4.5992e-06
-5.11944e-05
9.8921e-05
-4.5992e-06
-0.00012894
9.8921e-05
-0.000203185
-0.00012894
-5.45472e-05
-0.000203185
0.000202796
-5.45472e-05
3.402e-05
0.000202796
0.000219478
2.71277e-05
1.88888e-05
-2.25512e-05
-1.77222e-05
1.88888e-05
-5.11944e-05
-1.77222e-05
4.01535e-05
-5.11944e-05
9.8921e-05
4.01535e-05
-7.43405e-05
9.8921e-05
-0.000203185
-7.43405e-05
0.000149851
-0.000203185
0.000202796
0.000149851
-0.000173163
0.000202796
0.000219478
-0.000173163
-9.80728e-05
-2.25512e-05
-1.77222e-05
-4.94888e-06
-6.01201e-06
-1.77222e-05
4.01535e-05
-6.01201e-06
6.59935e-06
4.01535e-05
-7.43405e-05
6.59935e-06
-9.19558e-06
-7.43405e-05
0.000149851
-9.19558e-06
1.16395e-05
0.000149851
-0.000173163
1.16395e-05
-3.09461e-05
-0.000173163
-9.80726e-05
-3.09461e-05
5.15747e-06
-4.94888e-06
-6.01201e-06
-1.53345e-06
-7.50659e-07
-6.012e-06
6.59935e-06
-7.5066e-07
3.28137e-06
6.59935e-06
-9.19558e-06
3.28137e-06
-6.82827e-06
-9.19558e-06
1.16395e-05
-6.82828e-06
1.53999e-05
1.16395e-05
-3.09461e-05
1.53999e-05
-1.44919e-05
-3.09461e-05
5.15742e-06
-1.4492e-05
-1.5597e-05
-1.53345e-06
-7.50659e-07
-1.44314e-06
-2.14468e-06
-7.5066e-07
3.28137e-06
-2.14468e-06
1.48186e-06
3.28137e-06
-6.82827e-06
1.48186e-06
-1.33998e-06
-6.82828e-06
1.53999e-05
-1.33998e-06
-2.43974e-06
1.53999e-05
-1.4492e-05
-2.43974e-06
-9.14159e-06
-1.44919e-05
-1.5597e-05
-9.14158e-06
7.4384e-06
-1.44314e-06
-2.14468e-06
4.08688e-07
4.89872e-07
-2.14468e-06
1.48186e-06
4.89872e-07
-5.60352e-07
1.48186e-06
-1.33998e-06
-5.60352e-07
7.57049e-07
-1.33998e-06
-2.43974e-06
7.57048e-07
-3.06341e-06
-2.43974e-06
-9.14158e-06
-3.06341e-06
1.28929e-06
-9.14159e-06
7.4384e-06
1.28929e-06
4.89202e-06
4.08688e-07
4.89872e-07
6.59332e-08
3.9908e-07
4.89871e-07
-5.60352e-07
3.9908e-07
3.07733e-07
-5.60352e-07
7.57048e-07
3.07733e-07
-1.12845e-06
7.57048e-07
-3.06341e-06
-1.12845e-06
2.44114e-06
-3.06341e-06
1.28929e-06
2.44114e-06
-1.57755e-06
1.28929e-06
4.89202e-06
-1.57755e-06
2.78361e-07
4.89202e-06
1.20667e-05
2.7836e-07
-1.97036e-05
1.20667e-05
-1.0555e-05
-1.97036e-05
-2.24483e-05
0.000128353
-0.000471828
7.31749e-06
2.93556e-05
7.31749e-06
2.93556e-05
-1.0555e-05
-4.97673e-05
7.4384e-06
1.60306e-06
4.89202e-06
1.20667e-05
1.60306e-06
0.000128353
1.20667e-05
-1.0555e-05
6.58541e-05
-0.00232583
0.00487559
-0.00861831
-0.000171443
-0.000259407
0.00117361
-0.00217732
-0.000259407
6.58542e-05
-0.00217732
0.00487559
0.00117361
-0.00217732
0.000120505
-0.000143538
-5.16981e-05
-0.000215054
0.00024751
-0.000622608
-0.000215054
-0.000171443
-0.000622608
0.00117361
-0.000622608
0.00117361
-0.000471829
0.000120505
0.00024751
-0.000622608
0.000128353
-0.000471829
-1.5597e-05
-0.000156906
-1.14779e-05
-3.72148e-05
-1.14779e-05
-3.72148e-05
7.4384e-06
1.60306e-06
-0.000156906
-5.16981e-05
-3.72148e-05
0.00024751
-3.72148e-05
0.00024751
1.60306e-06
0.000128353
0.0409673
0.152166
0.00655564
-0.00100871
0.00655564
-0.00100871
6.58541e-05
-0.00232583
-0.00131386
0.0114664
0.00154044
-0.0019383
0.0114664
0.0409673
-0.0019383
0.00655564
-0.0019383
0.00655564
-0.000259407
6.58541e-05
0.00154044
-0.0019383
-0.000171443
-0.000259407
3.73409e-05
0.000653591
4.30507e-05
-0.00126515
0.000653591
-0.00131386
-0.00126515
0.00154044
-0.00126515
0.00154044
-0.000215054
-0.000171443
4.30508e-05
-0.00126515
-5.16981e-05
-0.000215054
5.15745e-06
-0.000354972
1.26918e-05
0.000235598
1.26918e-05
0.000235598
-1.5597e-05
-0.000156906
-0.000354972
3.73409e-05
0.000235598
4.30508e-05
0.000235598
4.30508e-05
-0.000156906
-5.16981e-05
0.421359
0.593803
0.253783
0.495535
0.253783
0.495535
0.0409673
0.152166
0.0230045
0.0804869
0.0126653
0.0273853
0.0804869
0.421359
0.0273853
0.253783
0.0273853
0.253783
0.0114664
0.0409673
0.0126653
0.0273853
-0.00131386
0.0114664
0.00361215
-0.0036522
0.00237944
-0.00231612
-0.0036522
0.0230045
-0.00231612
0.0126653
-0.00231612
0.0126653
0.000653591
-0.00131386
0.00237944
-0.00231612
3.73408e-05
0.000653591
-9.80727e-05
-6.24964e-05
-8.06303e-05
-0.000435254
-8.06303e-05
-0.000435254
5.15746e-06
-0.000354972
-6.24964e-05
0.00361215
-0.000435255
0.00237944
-0.000435255
0.00237944
-0.000354972
3.73409e-05
0.618121
0.840062
0.51911
0.652379
0.51911
0.652379
0.421359
0.593803
0.0378536
0.27489
0.0429818
0.275982
0.27489
0.618121
0.275982
0.51911
0.275982
0.51911
0.0804869
0.421359
0.0429818
0.275982
0.0230045
0.0804869
-0.000519791
0.00602565
0.000461957
0.00919226
0.00602565
0.0378536
0.00919226
0.0429818
0.00919226
0.0429818
-0.0036522
0.0230045
0.000461957
0.00919226
0.00361215
-0.0036522
0.000219478
0.00179732
6.81836e-05
7.97463e-05
6.81836e-05
7.97463e-05
-9.80727e-05
-6.24966e-05
0.00179732
-0.000519791
7.97463e-05
0.000461957
7.97463e-05
0.000461957
-6.24965e-05
0.00361215
0.617485
0.945404
0.618121
0.840062
-0.00241458
0.00400893
0.0170696
0.121952
0.00400893
0.13807
0.121952
0.617485
0.121952
0.617485
0.27489
0.618122
0.0170696
0.121952
0.0378536
0.27489
-0.00104943
0.000676252
0.00138986
-0.00391583
0.000676252
-0.00241458
-0.00391583
0.0170696
-0.00391583
0.0170696
0.00602565
0.0378536
0.00138986
-0.00391583
-0.000519791
0.00602565
3.402e-05
-0.0020012
0.000161832
0.00160312
0.000161832
0.00160312
0.000219478
0.00179732
-0.0020012
-0.00104943
0.00160312
0.00138986
0.00160312
0.00138986
0.00179732
-0.000519791
-0.00102925
-0.000428911
-0.00285851
0.0134309
-0.000428911
0.00561526
0.0134309
0.0372594
0.0134309
0.0372594
0.00400893
0.13807
-0.00285851
0.0134309
-0.00241458
0.00400893
-0.000555465
0.00145595
-0.000911276
0.00152432
0.00145595
-0.00102925
0.00152432
-0.00285851
0.00152432
-0.00285851
0.000676252
-0.00241458
-0.000911276
0.00152431
-0.00104943
0.000676252
1.75234e-05
-5.4828e-05
3.2234e-06
-0.00158439
3.2234e-06
-0.00158439
3.402e-05
-0.0020012
-5.48279e-05
-0.000555465
-0.00158439
-0.000911276
-0.00158439
-0.000911276
-0.0020012
-0.00104943
0.999304
1.00396
1.00073
1.00976
1.00396
1.00246
1.00976
1.00542
1.00246
1
1.00542
0.999556
1.00073
1.00976
1.00328
1.00513
1.00976
1.00542
1.00513
1.00233
1.00542
0.999556
1.00233
1.00018
0.999556
1.00056
1.00018
0.999266
1.00056
1.00033
0.999266
0.999224
1.00033
1.00044
0.999224
0.999144
1.00233
1.00018
0.998935
0.998834
1.00018
0.999266
0.998834
1.00141
0.999266
0.999224
1.00141
1.00126
0.999224
0.999144
1.00126
1.0016
0.998935
0.999671
1.00148
0.996987
0.999671
0.998834
0.996987
0.995187
0.998834
0.999859
0.995187
0.997839
0.999859
1.00141
0.997839
0.996401
1.00141
1.00126
0.996401
0.996761
1.00126
1.0016
0.996761
0.997415
1.00148
0.996987
0.991417
0.993986
0.996987
0.995186
0.993986
0.995428
0.995186
0.997839
0.995428
1.00558
0.997839
0.996401
1.00558
1.00453
0.996401
0.995966
1.00453
1.00165
0.995966
0.996761
1.00165
1.00313
0.996761
0.997101
1.00313
1.00572
0.997101
0.997415
1.00572
1.00652
1.00453
1.00165
0.994553
0.991255
1.00165
1.00313
0.991255
0.990822
1.00313
1.00572
0.990822
0.991947
1.00572
1.00652
0.991947
0.992354
0.0459928
0.0176845
0.00566128
0.00232445
0.0176845
0.0131599
0.00232445
-0.00569673
0.0302115
0.0592812
0.00666138
0.0113279
0.0592812
0.0459928
0.0113279
0.00566128
0.00666138
0.0113279
-0.00157217
-0.00431341
0.00433846
0.0144452
-0.000551638
-0.00604565
0.0144452
0.0302115
-0.00604565
0.00666138
-0.00604565
0.00666138
0.00365884
-0.00157217
0.750599
0.757149
0.159447
0.175908
0.706668
0.735608
0.100798
0.145735
0.735608
0.750599
0.145735
0.159447
0.100798
0.145735
0.0131599
0.00958766
0.810745
0.788496
0.345043
0.249205
0.788496
0.706668
0.249205
0.100798
0.249205
0.100798
0.0176845
0.0131599
0.345043
0.249205
0.0459928
0.0176845
0.461214
0.607479
0.203893
0.356248
0.607479
0.810745
0.356248
0.345043
0.356248
0.345043
0.0592812
0.0459928
0.203893
0.356248
0.0302115
0.0592812
0.193282
0.36278
0.0322002
0.0464034
0.36278
0.461214
0.0464034
0.203893
0.0464034
0.203893
0.0144452
0.0302115
0.0322002
0.0464034
0.00433846
0.0144452
0.00420451
0.0148525
0.00125323
0.000535336
0.0148525
0.193282
0.000535335
0.0322002
0.000535336
0.0322002
0.00208366
0.00433846
0.992354
0.992335
0.754849
0.759126
0.990821
0.991948
0.750599
0.757149
0.991947
0.992354
0.757149
0.754849
0.994553
0.991255
0.706668
0.735608
0.991255
0.990822
0.735608
0.750599
0.98569
0.986692
0.944398
0.993365
0.944398
0.993365
0.810745
0.788496
0.986692
0.994553
0.993365
0.996278
0.993365
0.996278
0.788496
0.706668
0.825077
0.945681
0.556411
0.77906
0.945681
0.98569
0.77906
0.944398
0.77906
0.944398
0.607479
0.810745
0.556411
0.77906
0.461214
0.607479
0.576107
0.740879
0.435831
0.605825
0.740879
0.825077
0.605825
0.556411
0.605825
0.556411
0.36278
0.461214
0.435831
0.605825
0.193282
0.36278
0.0131304
0.0835113
0.0121477
0.0206846
0.0835113
0.576107
0.0206846
0.435831
0.0206846
0.435831
0.0148525
0.193282
0.0121477
0.0206846
0.00420451
0.0148525
-0.00232583
0.0131304
-0.00861831
0.0121477
-0.00861831
0.0121477
-0.00124436
0.00420451
0.995428
1.00558
0.98569
0.986692
1.00558
1.00453
0.986692
0.994553
0.991417
0.993986
0.825077
0.945681
0.993986
0.995428
0.945681
0.98569
0.788876
0.94413
0.638728
0.842754
0.638728
0.842754
0.576107
0.740879
0.94413
0.991417
0.842754
0.970915
0.842754
0.970915
0.740879
0.825077
0.224817
0.271193
0.0178539
0.135444
0.271193
0.788876
0.135444
0.638728
0.135444
0.638728
0.0835113
0.576107
0.0178539
0.135444
0.0131304
0.0835113
0.152166
0.224817
-0.00100871
0.0178539
-0.00100871
0.0178539
-0.00232583
0.0131304
0.980006
0.997766
0.907836
0.983423
0.907836
0.983423
0.788876
0.94413
0.997766
1.00148
0.983423
0.996397
0.983423
0.996397
0.94413
0.991417
0.805865
0.94249
0.547983
0.69366
0.94249
0.980006
0.69366
0.907836
0.69366
0.907836
0.271193
0.788876
0.547983
0.69366
0.224817
0.271193
0.593803
0.805865
0.495535
0.547983
0.495535
0.547983
0.152166
0.224817
1.00584
0.999701
1.00368
1.00315
1.00368
1.00315
0.980006
0.997766
0.999701
0.998935
1.00315
1.00108
1.00315
1.00108
0.997766
1.00148
0.980167
0.973741
0.948272
0.960982
0.973741
1.00584
0.960982
1.00368
0.960982
1.00368
0.94249
0.980006
0.948272
0.960982
0.805865
0.94249
0.840062
0.980167
0.652379
0.948272
0.652379
0.948272
0.593803
0.805865
1.00328
1.00513
1.00584
0.999701
1.00513
1.00233
0.999701
0.998935
0.980068
0.992006
0.976699
0.983705
0.976699
0.983705
0.980167
0.973741
0.992006
1.00328
0.983705
1.00466
0.983705
1.00466
0.973741
1.00584
0.13807
0.76266
0.617485
0.945404
0.76266
0.980069
0.945404
0.976699
0.945404
0.976699
0.840062
0.980167
0.892295
0.991797
0.929823
1.00009
0.929823
1.00009
0.980068
0.992006
0.991797
1.00073
1.00009
1.00206
1.00009
1.00206
0.992006
1.00328
0.00561526
0.264474
0.0372594
0.372888
0.264474
0.892295
0.372888
0.929823
0.372888
0.929823
0.76266
0.980069
0.0372594
0.372888
0.13807
0.76266
0.886667
0.989155
0.892431
0.989939
0.892431
0.989939
0.892295
0.991797
0.989155
0.999304
0.989939
0.999283
0.989939
0.999283
0.991797
1.00073
0.250946
0.886667
0.264538
0.892431
0.264538
0.892431
0.264474
0.892295
0.0127991
0.264538
0.00561526
0.264474
0.889231
0.994043
0.889801
0.988913
0.889801
0.988913
0.886668
0.989155
-5.85228e-05
-0.000163937
0.000225628
8.42506e-06
-0.000163937
0.000169619
8.42506e-06
4.53809e-05
0.000169619
0.000622701
4.53809e-05
-5.89339e-05
0.000622701
0.000583917
-5.89339e-05
-0.000277522
0.000583917
0.000548113
-0.000277522
-9.65008e-05
0.000548113
-7.79312e-05
-9.65008e-05
-0.000128672
-7.79312e-05
-0.000143786
-0.000128672
-1.9373e-05
-0.000143786
-3.62464e-05
-1.9373e-05
-3.63006e-05
-3.62464e-05
-3.87802e-06
-3.63006e-05
-4.0763e-06
-3.87802e-06
-4.94862e-06
-4.0763e-06
3.32555e-05
-4.94862e-06
7.63112e-06
3.32555e-05
5.83296e-05
7.63112e-06
8.01498e-06
5.83296e-05
4.02227e-05
8.01498e-06
8.75164e-06
4.02227e-05
2.08747e-05
8.75164e-06
-7.86158e-06
2.08747e-05
-1.8047e-05
0.000225628
8.42507e-06
-3.77314e-05
-7.09529e-06
8.42507e-06
4.53809e-05
-7.09529e-06
6.69294e-05
4.53809e-05
-5.89339e-05
6.69295e-05
0.000156389
-5.89339e-05
-0.000277522
0.000156389
0.000191671
-0.000277522
-9.65007e-05
0.000191671
0.000123579
-9.65007e-05
-0.000128672
0.000123579
2.62438e-05
-0.000128672
-1.9373e-05
2.62438e-05
-1.84022e-05
-1.9373e-05
-3.63006e-05
-1.84022e-05
-2.05343e-05
-3.63006e-05
-4.0763e-06
-2.05343e-05
-1.04559e-05
-4.0763e-06
3.32555e-05
-1.04559e-05
-6.87505e-06
3.32555e-05
5.83296e-05
-6.87505e-06
-1.74136e-05
5.83296e-05
4.02227e-05
-1.74136e-05
-1.69458e-05
4.02227e-05
2.08747e-05
-1.69458e-05
9.00044e-06
2.08747e-05
-1.8047e-05
9.00044e-06
-4.64664e-07
-1.8047e-05
-9.69518e-06
-4.64665e-07
-6.50705e-05
-9.69518e-06
0.000144716
-6.50705e-05
-2.42912e-05
-3.77314e-05
6.69294e-05
3.0779e-05
-2.23212e-05
6.69294e-05
0.000191671
-2.23212e-05
-9.03525e-05
0.000191671
2.62438e-05
-9.03525e-05
-2.09883e-06
2.62438e-05
-2.05343e-05
-2.09883e-06
3.89449e-06
-2.05343e-05
-6.87505e-06
3.89449e-06
3.95054e-06
-6.87505e-06
-1.69458e-05
3.95054e-06
6.41586e-06
-1.69458e-05
-4.64662e-07
6.41586e-06
-1.63278e-06