# vtk DataFile Version 2.0
Hex test
ASCII
DATASET UNSTRUCTURED_GRID
POINTS 8852 float
46 32 0
46 33 0
48 32 0
48 33 0
46 33 0
46 34 0
48 33 0
48 34 0
46 34 0
46 35 0
48 34 0
48 35 0
46 35 0
46 36 0
48 35 0
48 36 0
46 36 0
46 37 0
48 36 0
48 37 0
46 37 0
46 38 0
48 37 0
48 38 0
48 22 0
48 23 0
50 22 0
50 23 0
48 23 0
48 24 0
50 23 0
50 24 0
48 24 0
48 25 0
50 24 0
50 25 0
48 25 0
48 26 0
50 25 0
50 26 0
48 26 0
48 27 0
50 26 0
50 27 0
48 27 0
48 28 0
50 27 0
50 28 0
48 28 0
48 29 0
50 28 0
50 29 0
48 29 0
48 30 0
50 29 0
50 30 0
48 30 0
48 31 0
50 30 0
50 31 0
48 31 0
48 32 0
50 31 0
50 32 0
48 32 0
48 33 0
50 32 0
50 33 0
48 33 0
48 34 0
50 33 0
50 34 0
48 34 0
48 35 0
50 34 0
50 35 0
48 35 0
48 36 0
50 35 0
50 36 0
48 36 0
48 37 0
50 36 0
50 37 0
48 37 0
48 38 0
50 37 0
50 38 0
50 22 0
50 23 0
52 22 0
52 23 0
50 23 0
50 24 0
52 23 0
52 24 0
50 24 0
50 25 0
52 24 0
52 25 0
50 25 0
50 26 0
52 25 0
52 26 0
50 26 0
50 27 0
52 26 0
52 27 0
50 27 0
50 28 0
52 27 0
52 28 0
50 28 0
50 29 0
52 28 0
52 29 0
50 29 0
50 30 0
52 29 0
52 30 0
50 30 0
50 31 0
52 30 0
52 31 0
50 31 0
50 32 0
52 31 0
52 32 0
50 32 0
50 34 0
52 32 0
52 34 0
50 34 0
50 36 0
52 34 0
52 36 0
50 36 0
50 38 0
52 36 0
52 38 0
52 22 0
52 24 0
54 22 0
54 24 0
52 24 0
52 26 0
54 24 0
54 26 0
52 26 0
52 28 0
54 26 0
54 28 0
52 28 0
52 30 0
54 28 0
54 30 0
52 30 0
52 32 0
54 30 0
54 32 0
52 32 0
52 34 0
54 32 0
54 34 0
52 34 0
52 36 0
54 34 0
54 36 0
52 36 0
52 38 0
54 36 0
54 38 0
54 22 0
54 24 0
56.1667 22 0
56.1667 24 0
54 24 0
54 26 0
56.1667 24 0
56.1667 26 0
54 26 0
54 28 0
56.1667 26 0
56.1667 28 0
54 28 0
54 30 0
56.1667 28 0
56.1667 30 0
54 30 0
54 32 0
56.1667 30 0
56.1667 32 0
54 32 0
54 34 0
56.1667 32 0
56.1667 34 0
54 34 0
54 36 0
56.1667 34 0
56.1667 36 0
54 36 0
54 38 0
56.1667 36 0
56.1667 38 0
56.1667 22 0
56.1667 24 0
60 22 0
60 24 0
56.1667 24 0
56.1667 26 0
60 24 0
60 26 0
56.1667 26 0
56.1667 28 0
60 26 0
60 28 0
56.1667 28 0
56.1667 30 0
60 28 0
60 30 0
56.1667 30 0
56.1667 32 0
60 30 0
60 32 0
56.1667 32 0
56.1667 34 0
60 32 0
60 34 0
56.1667 34 0
56.1667 36 0
60 34 0
60 36 0
56.1667 36 0
56.1667 38 0
60 36 0
60 38 0
46 30 0
46 31 0
48 30 0
48 31 0
46 31 0
46 32 0
48 31 0
48 32 0
46 28 0
46 29 0
48 28 0
48 29 0
46 29 0
46 30 0
48 29 0
48 30 0
46 26 0
46 27 0
48 26 0
48 27 0
46 27 0
46 28 0
48 27 0
48 28 0
46 24 0
46 25 0
48 24 0
48 25 0
46 25 0
46 26 0
48 25 0
48 26 0
46 23 0
46 24 0
48 23 0
48 24 0
44 36 0
44 37 0
46 36 0
46 37 0
44 34 0
44 35 0
46 34 0
46 35 0
44 35 0
44 36 0
46 35 0
46 36 0
44 32 0
44 33 0
46 32 0
46 33 0
44 33 0
44 34 0
46 33 0
46 34 0
44 30 0
44 31 0
45 30 0
45 31 0
45 30 0
45 31 0
46 30 0
46 31 0
44 31 0
44 32 0
45 31 0
45 32 0
45 31 0
45 32 0
46 31 0
46 32 0
44 28 0
44 29 0
45 28 0
45 29 0
44 29 0
44 30 0
45 29 0
45 30 0
45 29 0
45 30 0
46 29 0
46 30 0
45 28 0
45 29 0
46 28 0
46 29 0
44 26 0
44 27 0
45 26 0
45 27 0
45 26 0
45 27 0
46 26 0
46 27 0
44 27 0
44 28 0
45 27 0
45 28 0
45 27 0
45 28 0
46 27 0
46 28 0
44 24 0
44 25 0
46 24 0
46 25 0
44 25 0
44 26 0
46 25 0
46 26 0
44 23 0
44 24 0
45 23 0
45 24 0
45 23 0
45 24 0
46 23 0
46 24 0
43 36 0
43 37 0
44 36 0
44 37 0
42 34 0
42 35 0
43 34 0
43 35 0
42 35 0
42 36 0
43 35 0
43 36 0
43 35 0
43 36 0
44 35 0
44 36 0
43 34 0
43 35 0
44 34 0
44 35 0
42 32 0
42 33 0
43 32 0
43 33 0
42 33 0
42 34 0
43 33 0
43 34 0
43 33 0
43 34 0
44 33 0
44 34 0
43 32 0
43 33 0
44 32 0
44 33 0
42 30 0
42 31 0
43 30 0
43 31 0
42 31 0
42 32 0
43 31 0
43 32 0
43 31 0
43 32 0
44 31 0
44 32 0
43 30 0
43 31 0
44 30 0
44 31 0
42 28 0
42 29 0
43 28 0
43 29 0
42 29 0
42 30 0
43 29 0
43 30 0
43 29 0
43 30 0
44 29 0
44 30 0
43 28 0
43 29 0
44 28 0
44 29 0
42 26 0
42 27 0
43 26 0
43 27 0
42 27 0
42 28 0
43 27 0
43 28 0
43 27 0
43 28 0
44 27 0
44 28 0
43 26 0
43 27 0
44 26 0
44 27 0
42 24 0
42 25 0
43 24 0
43 25 0
42 25 0
42 26 0
43 25 0
43 26 0
43 25 0
43 26 0
44 25 0
44 26 0
43 24 0
43 25 0
44 24 0
44 25 0
43 23 0
43 24 0
44 23 0
44 24 0
40 34 0
40 35 0
41 34 0
41 35 0
41 35 0
41 36 0
42 35 0
42 36 0
41 34 0
41 35 0
42 34 0
42 35 0
40 32 0
40 33 0
41 32 0
41 33 0
40 33 0
40 34 0
41 33 0
41 34 0
41 33 0
41 34 0
42 33 0
42 34 0
41 32 0
41 33 0
42 32 0
42 33 0
40 30 0
40 31 0
41 30 0
41 31 0
40 31 0
40 32 0
41 31 0
41 32 0
41 31 0
41 32 0
42 31 0
42 32 0
41 30 0
41 31 0
42 30 0
42 31 0
40 28 0
40 29 0
41 28 0
41 29 0
40 29 0
40 30 0
41 29 0
41 30 0
41 29 0
41 30 0
42 29 0
42 30 0
41 28 0
41 29 0
42 28 0
42 29 0
40 26 0
40 27 0
41 26 0
41 27 0
40 27 0
40 28 0
41 27 0
41 28 0
41 27 0
41 28 0
42 27 0
42 28 0
41 26 0
41 27 0
42 26 0
42 27 0
40 24 0
40 25 0
41 24 0
41 25 0
40 25 0
40 26 0
41 25 0
41 26 0
41 25 0
41 26 0
42 25 0
42 26 0
41 24 0
41 25 0
42 24 0
42 25 0
39 27 0
39 28 0
40 27 0
40 28 0
24 34 0
24 36 0
26 34 0
26 36 0
26 24 0
26 26 0
28 24 0
28 26 0
26 26 0
26 28 0
28 26 0
28 28 0
26 28 0
26 30 0
28 28 0
28 30 0
26 30 0
26 32 0
28 30 0
28 32 0
26 32 0
26 34 0
28 32 0
28 34 0
26 34 0
26 36 0
28 34 0
28 36 0
28 22 0
28 24 0
30 22 0
30 24 0
28 24 0
28 26 0
30 24 0
30 26 0
28 26 0
28 28 0
30 26 0
30 28 0
28 28 0
28 30 0
30 28 0
30 30 0
28 30 0
28 32 0
30 30 0
30 32 0
28 32 0
28 34 0
30 32 0
30 34 0
28 34 0
28 35 0
30 34 0
30 35 0
28 35 0
28 36 0
30 35 0
30 36 0
30 22 0
30 24 0
32 22 0
32 24 0
30 24 0
30 26 0
32 24 0
32 26 0
30 26 0
30 28 0
32 26 0
32 28 0
30 28 0
30 30 0
32 28 0
32 30 0
30 30 0
30 32 0
32 30 0
32 32 0
30 32 0
30 33 0
32 32 0
32 33 0
30 33 0
30 34 0
32 33 0
32 34 0
30 34 0
30 35 0
32 34 0
32 35 0
30 35 0
30 36 0
32 35 0
32 36 0
32 22 0
32 23 0
34 22 0
34 23 0
32 23 0
32 24 0
34 23 0
34 24 0
32 24 0
32 25 0
34 24 0
34 25 0
32 25 0
32 26 0
34 25 0
34 26 0
32 26 0
32 27 0
34 26 0
34 27 0
32 27 0
32 28 0
34 27 0
34 28 0
32 28 0
32 29 0
34 28 0
34 29 0
32 29 0
32 30 0
34 29 0
34 30 0
32 30 0
32 31 0
34 30 0
34 31 0
32 31 0
32 32 0
34 31 0
34 32 0
32 32 0
32 33 0
34 32 0
34 33 0
32 33 0
32 34 0
34 33 0
34 34 0
34 22 0
34 23 0
36 22 0
36 23 0
34 23 0
34 24 0
36 23 0
36 24 0
34 24 0
34 25 0
36 24 0
36 25 0
34 25 0
34 26 0
36 25 0
36 26 0
34 26 0
34 27 0
36 26 0
36 27 0
34 27 0
34 28 0
36 27 0
36 28 0
34 28 0
34 29 0
36 28 0
36 29 0
34 29 0
34 30 0
36 29 0
36 30 0
34 30 0
34 31 0
36 30 0
36 31 0
34 31 0
34 32 0
36 31 0
36 32 0
40 35 0
40 36 0
41 35 0
41 36 0
38 36 0
38 37 0
39 36 0
39 37 0
38 37 0
38 38 0
39 37 0
39 38 0
38 34 0
38 35 0
39 34 0
39 35 0
38 35 0
38 36 0
39 35 0
39 36 0
39 35 0
39 36 0
40 35 0
40 36 0
39 34 0
39 35 0
40 34 0
40 35 0
38 32 0
38 33 0
39 32 0
39 33 0
38 33 0
38 34 0
39 33 0
39 34 0
39 33 0
39 34 0
40 33 0
40 34 0
39 32 0
39 33 0
40 32 0
40 33 0
38 30 0
38 31 0
39 30 0
39 31 0
38 31 0
38 32 0
39 31 0
39 32 0
39 31 0
39 32 0
40 31 0
40 32 0
39 30 0
39 31 0
40 30 0
40 31 0
38 28 0
38 29 0
39 28 0
39 29 0
38 29 0
38 30 0
39 29 0
39 30 0
39 29 0
39 30 0
40 29 0
40 30 0
39 28 0
39 29 0
40 28 0
40 29 0
38 26 0
38 27 0
39 26 0
39 27 0
38 27 0
38 28 0
39 27 0
39 28 0
39 26 0
39 27 0
40 26 0
40 27 0
38 24 0
38 25 0
39 24 0
39 25 0
38 25 0
38 26 0
39 25 0
39 26 0
39 25 0
39 26 0
40 25 0
40 26 0
38 23 0
38 24 0
39 23 0
39 24 0
36 38 0
36 39 0
37 38 0
37 39 0
36 36 0
36 37 0
37 36 0
37 37 0
36 37 0
36 38 0
37 37 0
37 38 0
37 37 0
37 38 0
38 37 0
38 38 0
37 36 0
37 37 0
38 36 0
38 37 0
36 34 0
36 35 0
37 34 0
37 35 0
36 35 0
36 36 0
37 35 0
37 36 0
37 35 0
37 36 0
38 35 0
38 36 0
37 34 0
37 35 0
38 34 0
38 35 0
36 32 0
36 33 0
37 32 0
37 33 0
37 32 0
37 33 0
38 32 0
38 33 0
36 33 0
36 34 0
37 33 0
37 34 0
37 33 0
37 34 0
38 33 0
38 34 0
36 30 0
36 31 0
38 30 0
38 31 0
36 31 0
36 32 0
38 31 0
38 32 0
36 28 0
36 29 0
38 28 0
38 29 0
36 29 0
36 30 0
38 29 0
38 30 0
36 26 0
36 27 0
38 26 0
38 27 0
36 27 0
36 28 0
38 27 0
38 28 0
36 24 0
36 25 0
38 24 0
38 25 0
36 25 0
36 26 0
38 25 0
38 26 0
36 22 0
36 23 0
38 22 0
38 23 0
36 23 0
36 24 0
38 23 0
38 24 0
34 38 0
34 39 0
35 38 0
35 39 0
35 38 0
35 39 0
36 38 0
36 39 0
34 36 0
34 37 0
35 36 0
35 37 0
34 37 0
34 38 0
35 37 0
35 38 0
35 37 0
35 38 0
36 37 0
36 38 0
35 36 0
35 37 0
36 36 0
36 37 0
34 34 0
34 35 0
35 34 0
35 35 0
35 34 0
35 35 0
36 34 0
36 35 0
34 35 0
34 36 0
35 35 0
35 36 0
35 35 0
35 36 0
36 35 0
36 36 0
34 32 0
34 33 0
36 32 0
36 33 0
34 33 0
34 34 0
36 33 0
36 34 0
32 38 0
32 39 0
33 38 0
33 39 0
33 38 0
33 39 0
34 38 0
34 39 0
32 36 0
32 37 0
33 36 0
33 37 0
33 36 0
33 37 0
34 36 0
34 37 0
32 37 0
32 38 0
33 37 0
33 38 0
33 37 0
33 38 0
34 37 0
34 38 0
32 34 0
32 35 0
34 34 0
34 35 0
32 35 0
32 36 0
34 35 0
34 36 0
30 38 0
30 39 0
31 38 0
31 39 0
31 38 0
31 39 0
32 38 0
32 39 0
30 36 0
30 37 0
31 36 0
31 37 0
31 36 0
31 37 0
32 36 0
32 37 0
30 37 0
30 38 0
31 37 0
31 38 0
31 37 0
31 38 0
32 37 0
32 38 0
28 38 0
28 39 0
29 38 0
29 39 0
28 39 0
28 40 0
29 39 0
29 40 0
29 38 0
29 39 0
30 38 0
30 39 0
28 36 0
28 37 0
29 36 0
29 37 0
29 36 0
29 37 0
30 36 0
30 37 0
28 37 0
28 38 0
29 37 0
29 38 0
29 37 0
29 38 0
30 37 0
30 38 0
26 38 0
26 39 0
27 38 0
27 39 0
26 39 0
26 40 0
27 39 0
27 40 0
27 39 0
27 40 0
28 39 0
28 40 0
27 38 0
27 39 0
28 38 0
28 39 0
26 36 0
26 37 0
27 36 0
27 37 0
27 36 0
27 37 0
28 36 0
28 37 0
26 37 0
26 38 0
27 37 0
27 38 0
27 37 0
27 38 0
28 37 0
28 38 0
24 38 0
24 39 0
25 38 0
25 39 0
25 38 0
25 39 0
26 38 0
26 39 0
24 36 0
24 37 0
25 36 0
25 37 0
25 36 0
25 37 0
26 36 0
26 37 0
24 37 0
24 38 0
25 37 0
25 38 0
25 37 0
25 38 0
26 37 0
26 38 0
40 46 0
40 47 0
42 46 0
42 47 0
40 47 0
40 48 0
42 47 0
42 48 0
40 48 0
40 50 0
42 48 0
42 50 0
42 44 0
42 45 0
44 44 0
44 45 0
42 45 0
42 46 0
44 45 0
44 46 0
42 46 0
42 47 0
44 46 0
44 47 0
42 47 0
42 48 0
44 47 0
44 48 0
42 48 0
42 50 0
44 48 0
44 50 0
42 50 0
42 52 0
44 50 0
44 52 0
42 52 0
42 54 0
44 52 0
44 54 0
42 54 0
42 56.1667 0
44 54 0
44 56.1667 0
42 56.1667 0
42 60 0
44 56.1667 0
44 60 0
44 40 0
44 41 0
46 40 0
46 41 0
44 41 0
44 42 0
46 41 0
46 42 0
44 42 0
44 43 0
46 42 0
46 43 0
44 43 0
44 44 0
46 43 0
46 44 0
44 44 0
44 45 0
46 44 0
46 45 0
44 45 0
44 46 0
46 45 0
46 46 0
44 46 0
44 48 0
46 46 0
46 48 0
44 48 0
44 50 0
46 48 0
46 50 0
44 50 0
44 52 0
46 50 0
46 52 0
44 52 0
44 54 0
46 52 0
46 54 0
44 54 0
44 56.1667 0
46 54 0
[...]
POINT_DATA 8852
SCALARS phi float 1
LOOKUP_TABLE default
-0.000475798
-0.000402939
0.000213013
7.62174e-05
-0.000402939
0.000146272
7.62174e-05
-6.5143e-06
0.000146272
7.40644e-05
-6.51429e-06
-0.000148437
7.40644e-05
-1.81231e-05
-0.000148437
2.74812e-05
-1.81231e-05
-1.4934e-05
2.74812e-05
5.7419e-05
-1.4934e-05
2.75679e-05
5.7419e-05
-1.76312e-05
8.77215e-06
5.04795e-05
9.36426e-07
-1.54588e-06
5.04795e-05
4.38612e-05
-1.54588e-06
-1.22801e-05
4.38612e-05
6.40045e-06
-1.22801e-05
-5.36357e-06
6.40045e-06
-1.12212e-05
-5.36357e-06
-5.06998e-06
-1.12212e-05
-2.42549e-07
-5.06998e-06
-3.82799e-05
-2.42549e-07
8.95428e-05
-3.82799e-05
-1.3889e-05
8.95428e-05
6.2265e-05
-1.3889e-05
6.54068e-05
6.2265e-05
-0.000136514
6.54068e-05
4.56056e-05
-0.000136514
-0.000276641
4.56056e-05
-0.000226685
-0.000276641
0.000213013
-0.000226685
-0.000188572
0.000213013
7.62174e-05
-0.000188572
-6.08479e-05
7.62174e-05
-6.5143e-06
-6.08479e-05
2.16491e-05
-6.51427e-06
-0.000148437
2.16491e-05
3.30795e-05
-0.000148437
2.74812e-05
3.30795e-05
1.19464e-05
2.74812e-05
5.7419e-05
1.19464e-05
1.61922e-06
5.7419e-05
-1.76312e-05
1.61922e-06
5.78019e-07
9.36427e-07
-1.54588e-06
-3.04425e-07
3.14213e-06
-1.54588e-06
-1.22801e-05
3.14213e-06
6.12539e-06
-1.22801e-05
-5.36357e-06
6.12539e-06
1.63983e-06
-5.36357e-06
-5.06998e-06
1.63983e-06
3.98788e-07
-5.06998e-06
-3.82799e-05
3.98789e-07
1.02982e-05
-3.82799e-05
-1.3889e-05
1.02982e-05
1.02456e-05
-1.3889e-05
6.54068e-05
1.02456e-05
-1.30624e-05
6.54068e-05
4.56056e-05
-1.30624e-05
-1.27837e-05
4.56056e-05
-0.000226685
-1.27837e-05
4.5617e-05
-0.000226685
-0.000188572
4.5617e-05
8.7301e-05
-0.000188572
2.16491e-05
8.7301e-05
-1.73314e-05
2.16491e-05
1.19464e-05
-1.73314e-05
-2.36732e-07
1.19464e-05
5.78019e-07
-2.36732e-07
-1.9716e-06
-3.04426e-07
6.1254e-06
5.96568e-07
-3.26623e-06
6.1254e-06
3.98789e-07
-3.26623e-06
3.42297e-08
3.98789e-07
1.02456e-05
3.42303e-08
-5.21257e-06
1.02456e-05
-1.27837e-05
-5.21257e-06
1.11972e-05
-1.27837e-05
8.7301e-05
1.11972e-05
-4.10441e-05
8.7301e-05
-1.73314e-05
-4.10441e-05
4.501e-06
-1.73314e-05
-2.36733e-07
4.50099e-06
8.46114e-07
-2.36729e-07
-1.9716e-06
8.46115e-07
9.00338e-08
5.96568e-07
-3.26623e-06
-1.05255e-06
1.59725e-06
-3.26623e-06
3.42302e-08
1.59725e-06
-6.96496e-07
3.42308e-08
-5.21256e-06
-6.96496e-07
2.75196e-06
-5.21257e-06
1.11972e-05
2.75196e-06
-1.25457e-05
1.11972e-05
-4.10441e-05
-1.25457e-05
1.22556e-05
-4.10441e-05
4.501e-06
1.22556e-05
5.40991e-06
4.501e-06
8.46113e-07
5.40991e-06
-1.22504e-06
8.46114e-07
9.00337e-08
-1.22504e-06
1.36315e-06
-1.05255e-06
1.59725e-06
-6.11093e-07
1.5689e-06
1.59725e-06
-6.96495e-07
1.5689e-06
1.04289e-08
-6.96496e-07
2.75196e-06
1.0429e-08
2.24444e-06
2.75196e-06
-1.25457e-05
2.24444e-06
-7.39221e-06
-1.25457e-05
1.22556e-05
-7.39221e-06
1.52376e-05
1.22556e-05
5.40991e-06
1.52376e-05
9.41994e-07
5.40991e-06
-1.22504e-06
9.41994e-07
-9.74971e-07
-1.22504e-06
1.36315e-06
-9.74971e-07
5.82232e-07
-9.10631e-05
-0.000158072
-0.000136514
-0.000276642
-0.000158072
-0.000475798
-0.000276641
0.000213013
-1.67299e-05
4.80719e-05
8.95428e-05
6.2265e-05
4.80719e-05
-9.10631e-05
6.2265e-05
-0.000136514
-1.50566e-05
-2.74202e-05
-1.12212e-05
-2.42549e-07
-2.74202e-05
-1.67299e-05
-2.42548e-07
8.95428e-05
-5.66246e-07
-8.6266e-06
4.38612e-05
6.40045e-06
-8.6266e-06
-1.50566e-05
6.40045e-06
-1.12212e-05
1.25816e-05
-5.66245e-07
5.04795e-05
4.38612e-05
-1.3731e-06
4.09593e-05
-1.81231e-05
-1.4934e-05
0.000225528
1.73663e-05
0.000146272
7.40644e-05
1.73663e-05
-1.37311e-06
7.40644e-05
-1.81231e-05
-0.000241078
-0.000288145
-0.000475798
-0.000402939
-0.000288145
0.000225529
-0.000402939
0.000146272
0.000305589
0.000306234
0.000500136
0.000202412
0.000500136
0.000202412
-9.10631e-05
-0.000158072
0.000306234
-0.000241078
0.000202412
0.00107503
0.000202412
0.00107503
-0.000158072
-0.000475798
-8.57461e-06
9.2263e-05
-6.46752e-05
-2.87883e-06
9.2263e-05
0.000305589
-2.87883e-06
0.000500136
-2.87882e-06
0.000500136
4.80719e-05
-9.10631e-05
-6.46752e-05
-2.87884e-06
-1.67299e-05
4.80718e-05
-4.716e-05
-3.05884e-05
-8.64448e-06
-3.44972e-05
-8.64448e-06
-3.44972e-05
-1.50566e-05
-2.74202e-05
-3.05884e-05
-8.57462e-06
-3.44972e-05
-6.46753e-05
-3.44972e-05
-6.46753e-05
-2.74202e-05
-1.67299e-05
-3.82706e-05
-3.93359e-05
-5.66246e-07
-8.6266e-06
-3.93359e-05
-4.716e-05
-8.6266e-06
-1.50566e-05
-7.47261e-06
-3.82706e-05
-4.8624e-05
-2.68671e-05
-4.8624e-05
-2.68671e-05
1.25817e-05
-5.66245e-07
-5.1526e-05
0.000109074
-1.37309e-06
4.09593e-05
-0.00272424
-0.000367405
0.000971962
0.000164454
-0.000367405
0.00026448
0.000164454
-5.1526e-05
0.000164454
-5.1526e-05
1.73663e-05
-1.37309e-06
0.000971962
0.000164454
0.000225529
1.73663e-05
0.00499178
0.00540211
-0.00161291
-0.00183687
0.00540211
-0.00272424
-0.00183687
0.000971962
-0.00183687
0.000971962
-0.000288145
0.000225529
-0.00161291
-0.00183687
-0.000241078
-0.000288145
0.00055929
-6.53622e-05
-4.75486e-05
0.000154362
-6.53624e-05
0.00499179
0.000154363
-0.00161291
0.000154363
-0.00161291
0.000306234
-0.000241078
-4.75486e-05
0.000154362
0.000305589
0.000306234
0.000168329
0.000158187
-0.000100268
-8.09284e-05
0.000158187
0.00055929
-8.09284e-05
-4.75486e-05
-8.09284e-05
-4.75486e-05
9.2263e-05
0.000305589
-0.000100268
-8.09284e-05
-8.57461e-06
9.2263e-05
0.000121011
6.54224e-05
-4.58852e-05
-3.18651e-05
6.54224e-05
0.000168329
-3.18651e-05
-0.000100268
-3.18651e-05
-0.000100268
-3.05884e-05
-8.57461e-06
-4.58852e-05
-3.18651e-05
-4.716e-05
-3.05884e-05
4.25944e-05
7.3435e-05
-1.71282e-05
-2.9399e-05
7.3435e-05
0.000121011
-2.9399e-05
-4.58852e-05
-2.9399e-05
-4.58852e-05
-3.93359e-05
-4.716e-05
-1.71282e-05
-2.9399e-05
-3.82706e-05
-3.93359e-05
2.28472e-05
-1.71282e-05
-7.4726e-06
-3.82706e-05
-0.00886128
-0.00124015
0.00881197
0.000913528
0.000913528
-0.000360565
-0.000367405
0.00026448
0.00881197
0.000913529
-0.00272424
-0.000367405
0.0187826
0.0213315
-0.0146042
-0.0135366
0.0213315
-0.00886128
-0.0135366
0.00881197
-0.0135366
0.00881197
0.00540211
-0.00272424
-0.0146042
-0.0135366
0.00499179
0.00540211
0.00590497
0.00159829
-0.00176292
-0.00212185
0.00159829
0.0187826
-0.00212185
-0.0146042
-0.00212185
-0.0146042
-6.53627e-05
0.00499179
-0.00176292
-0.00212185
0.00055929
-6.53627e-05
0.00792802
0.00568612
-5.577e-05
-8.70853e-05
0.00568612
0.00590497
-8.70853e-05
-0.00176292
-8.70853e-05
-0.00176292
0.000158187
0.00055929
-5.57701e-05
-8.70854e-05
0.000168329
0.000158187
0.00821509
0.00764901
4.60316e-05
0.000163726
0.00764901
0.00792802
0.000163726
-5.577e-05
0.000163726
-5.577e-05
6.54225e-05
0.000168329
4.60315e-05
0.000163726
0.000121011
6.54225e-05
0.00813607
0.00771302
0.000218758
0.000152377
0.00771302
0.00821509
0.000152377
4.60316e-05
0.000152377
4.60315e-05
7.3435e-05
0.000121011
0.000218758
0.000152377
4.25944e-05
7.3435e-05
0.169147
0.167632
0.00764901
0.00792802
0.998664
0.999416
0.997684
0.998964
1.00039
1.00034
0.999257
0.999125
1.00034
1.00055
0.999125
0.999323
1.00055
1.00051
0.999323
0.99831
1.00051
1.00036
0.99831
1.00027
1.00036
0.997684
1.00027
0.999945
0.997684
0.998964
0.999945
1.00032
0.999185
0.999257
1.00147
1.00146
0.999257
0.999125
1.00146
1.00148
0.999125
0.999323
1.00148
1.00146
0.999323
0.99831
1.00146
1.00222
0.99831
1.00027
1.00222
0.999489
1.00027
0.999945
0.999489
0.990662
0.999945
0.999986
0.990662
0.992498
0.999986
1.00032
0.992498
0.993283
1.00147
1.00146
0.997568
0.998141
1.00146
1.00148
0.998141
0.99708
1.00148
1.00146
0.99708
0.998401
1.00146
1.00222
0.998401
0.989976
1.00222
0.999489
0.989976
1.00372
0.999489
0.993708
1.00372
1.00402
0.993708
0.990662
1.00402
1.01306
0.990662
0.992498
1.01306
1.00652
0.992498
0.993283
1.00652
0.990589
0.997568
0.998093
1.00634
1.00581
0.998093
0.998141
1.00581
1.00606
0.998141
0.997187
1.00606
1.0067
0.997187
0.99708
1.0067
1.00675
0.99708
0.998915
1.00675
1.00508
0.998915
0.998401
1.00508
1.00517
0.998401
0.992676
1.00517
1.00988
0.992676
0.989976
1.00988
1.015
0.989976
0.997063
1.015
1.01328
0.997063
1.00372
1.01328
1.0035
1.00372
1.00402
1.0035
0.991257
1.00402
1.01306
0.991257
0.993315
1.00634
1.00581
0.992487
0.992308
1.00581
1.00606
0.992308
0.992513
1.00606
1.0067
0.992513
0.992081
1.0067
1.00675
0.992081
0.992057
1.00675
1.00508
0.992057
0.992883
1.00508
1.00517
0.992883
0.992377
1.00517
1.00988
0.992377
0.989836
1.00988
1.015
0.989836
0.987735
1.015
1.01328
0.987735
0.988638
1.01328
1.0035
0.988638
0.999073
-0.00124015
0.00107218
0.000913529
-0.000360565
0.00473005
-0.0012113
-0.00135434
0.00135619
-0.0012113
-0.00139953
0.00135619
0.000466792
0.090917
0.031984
0.0200532
0.00352953
0.031984
0.00473005
0.00352953
-0.00135434
0.00352953
-0.00135434
-0.00124015
0.00107218
0.0200532
0.00352953
-0.00886128
-0.00124015
0.672178
0.417921
0.077085
0.00228545
0.417921
0.090917
0.00228545
0.0200532
0.00228545
0.0200532
0.0213315
-0.00886128
0.077085
0.00228544
0.0187826
0.0213315
0.766695
0.777824
0.147324
0.1671
0.777824
0.672178
0.1671
0.077085
0.1671
0.077085
0.00159829
0.0187826
0.147324
0.1671
0.00590497
0.00159829
0.756388
0.76488
0.167632
0.16051
0.76488
0.766695
0.16051
0.147324
0.16051
0.147324
0.00568612
0.00590497
0.167632
0.16051
0.00792802
0.00568612
0.754992
0.754017
0.169331
0.169147
0.754017
0.756388
0.169147
0.167632
0.169331
0.169147
0.00821509
0.00764901
0.755897
0.755681
0.172507
0.169017
0.755681
0.754992
0.169017
0.169331
0.169017
0.169331
0.00771302
0.00821509
0.757614
0.755897
0.172204
0.172507
0.0192724
0.00471161
0.00413708
0.00160986
0.328066
0.119408
0.0294897
0.0165385
0.119408
0.0192724
0.0165385
0.00413708
0.0165385
0.00413708
-0.0012113
-0.00139953
0.0294897
0.0165385
0.00473005
-0.0012113
0.96476
0.767179
0.717932
0.285979
0.767179
0.328066
0.285979
0.0294897
0.285979
0.0294897
0.031984
0.00473005
0.717932
0.285979
0.090917
0.031984
0.999073
1.00447
0.980327
0.865637
0.980327
0.865637
0.672178
0.417921
1.00447
0.96476
0.865637
0.717932
0.865637
0.717932
0.417921
0.090917
0.987735
0.988638
0.766695
0.777824
0.988638
0.999073
0.777824
0.672178
0.992377
0.989836
0.756388
0.76488
0.989836
0.987735
0.76488
0.766695
0.992057
0.992883
0.754992
0.754017
0.992883
0.992377
0.754017
0.756389
0.992513
0.992081
0.755897
0.755681
0.992081
0.992057
0.755681
0.754992
0.992487
0.992308
0.753795
0.757614
0.992308
0.992513
0.757614
0.755897
0.377592
0.0342924
0.12986
0.0156664
0.12986
0.0156664
0.0192724
0.00471161
0.942743
0.786989
0.768808
0.510733
0.786989
0.377592
0.510733
0.129859
0.510733
0.12986
0.119408
0.0192724
0.768808
0.510733
0.328066
0.119408
0.993315
0.981249
0.997964
0.991196
0.997964
0.991196
0.96476
0.767179
0.981249
0.942743
0.991197
0.768808
0.991197
0.768808
0.767179
0.328066
1.0035
0.991257
0.999073
1.00447
0.991257
0.993315
1.00447
0.96476
0.5896
0.352043
0.467686
0.107952
0.467686
0.107952
0.377592
0.0342924
0.990589
0.943002
0.985587
0.894943
0.985587
0.894943
0.942743
0.786989
0.943002
0.5896
0.894943
0.467686
0.894943
0.467686
0.786989
0.377592
1.01306
1.00652
0.993315
0.981249
1.00652
0.990589
0.981249
0.942743
0.978642
0.911438
0.855047
0.699885
0.855047
0.699885
0.5896
0.352043
0.993283
1.00467
0.990904
0.993295
0.990904
0.993295
0.990589
0.943002
1.00467
0.978642
0.993295
0.855047
0.993295
0.855047
0.943002
0.5896
0.990057
0.775348
0.981245
0.932611
0.775348
0.117319
0.932611
0.411254
0.981245
0.932611
0.978642
0.911438
1.00032
1.00095
0.99731
0.996918
0.99731
0.996918
0.993283
1.00467
1.00095
0.990057
0.996918
0.981245
0.996918
0.981245
1.00467
0.978642
0.987243
0.691005
0.979056
0.646416
0.691005
0.0785834
0.646416
0.0715697
0.646416
0.0715697
0.775348
0.117319
0.979056
0.646416
0.990057
0.775348
0.998964
0.991651
1.00016
0.998914
1.00016
0.998914
1.00032
1.00095
0.991651
0.987243
0.998914
0.979056
0.998914
0.979056
1.00095
0.990057
0.96113
0.515322
0.981925
0.654823
0.981925
0.654823
0.987243
0.691005
0.999416
0.993575
0.999074
0.991637
0.999074
0.991637
0.998964
0.991651
0.993575
0.96113
0.991637
0.981925
0.991637
0.981925
0.991651
0.987243
1.3618e-06
4.58517e-06
3.63196e-06
4.83575e-07
4.58517e-06
-5.67217e-07
4.83575e-07
4.44571e-07
-5.67217e-07
1.37944e-07
4.44571e-07
1.50954e-07
2.95507e-05
1.2521e-05
1.55589e-05
3.79785e-06
1.2521e-05
3.63196e-06
3.79785e-06
2.31776e-06
3.63196e-06
4.83575e-07
2.31776e-06
8.30531e-07
4.83575e-07
4.44571e-07
8.30531e-07
-6.70409e-07
4.44571e-07
1.50954e-07
-6.70409e-07
5.59561e-07
1.50954e-07
4.85407e-08
5.59561e-07
-2.10569e-07
4.85407e-08
-1.03389e-08
-2.10569e-07
2.17725e-07
-1.03389e-08
-3.5629e-08
2.17725e-07
-2.14617e-07
-3.5629e-08
-6.49551e-09
-2.14617e-07
-1.1562e-07
-3.81797e-05
-7.21251e-05
-1.87824e-05
-1.90225e-05
-7.21251e-05
1.56471e-05
-1.90225e-05
-2.62912e-06
1.56471e-05
3.75367e-05
-2.62912e-06
4.09092e-06
3.75367e-05
1.5559e-05
4.09092e-06
3.46843e-06
1.5559e-05
3.79785e-06
3.46843e-06
1.03713e-06
3.79785e-06
2.31776e-06
1.03713e-06
-8.45664e-07
2.31776e-06
-6.70409e-07
-8.45664e-07
1.16939e-07
-6.70409e-07
5.59561e-07
1.16939e-07
6.27441e-07
5.59561e-07
-2.10569e-07
6.27441e-07
-8.25535e-08
-2.10569e-07
2.17725e-07
-8.25535e-08
2.74018e-08
2.17725e-07
-2.14617e-07
2.74018e-08
1.81309e-08
-2.14617e-07
-1.1562e-07
1.81309e-08
4.01984e-09
2.75679e-05
2.0082e-06
-1.76312e-05
-2.31901e-05
2.0082e-06
-1.87824e-05
-2.31901e-05
2.31179e-05
-1.87824e-05
-1.90225e-05
2.31179e-05
1.7092e-05
-1.90225e-05
-2.62912e-06
1.7092e-05
-1.03889e-05
-2.62912e-06
4.09092e-06
-1.03889e-05
-7.22884e-06
4.09092e-06
3.46843e-06
-7.22884e-06
7.04837e-06
3.46843e-06
-8.45664e-07
7.04837e-06
-3.72927e-06
-8.45664e-07
1.16939e-07
-3.72927e-06
1.52008e-06
1.16939e-07
6.27441e-07
1.52008e-06
-5.27806e-07
6.27441e-07
-8.25535e-08
-5.27806e-07
4.42163e-07
-8.25535e-08
2.74018e-08
4.42163e-07
-1.45277e-07
2.74019e-08
1.81309e-08
-1.45277e-07
-3.71299e-08
1.81309e-08
4.01984e-09
-3.71299e-08
1.11122e-08
-1.76312e-05
-2.31901e-05
5.7802e-07
-1.19911e-06
-2.31901e-05
2.31179e-05
-1.19911e-06
-2.85324e-06
2.31179e-05
-1.03889e-05
-2.85324e-06
-2.97205e-07
-1.03889e-05
7.04837e-06
-2.97206e-07
-6.20484e-07
7.04837e-06
-3.72927e-06
-6.20484e-07
5.86113e-07
-3.72928e-06
1.52008e-06
5.86113e-07
-5.34635e-08
1.52008e-06
-5.27806e-07
-5.34634e-08
-1.2455e-07
-5.27806e-07
4.42163e-07
-1.2455e-07
8.16805e-11
4.42163e-07
-1.45277e-07
8.16719e-11
-3.23058e-08
-1.45277e-07
-3.71299e-08
-3.23058e-08
4.92682e-08
-3.71299e-08
1.11122e-08
4.92682e-08
2.18324e-08
5.78022e-07
-2.85324e-06
-1.9716e-06
2.44808e-06
-2.85324e-06
-2.97205e-07
2.44808e-06
-4.92345e-07
-2.97206e-07
-6.20484e-07
-4.92345e-07
5.77236e-07
-6.20484e-07
5.86113e-07
5.77236e-07
-3.60936e-07
5.86114e-07
-5.34635e-08
-3.60936e-07
9.76006e-08
-5.34634e-08
-1.2455e-07
9.76006e-08
-6.60491e-09
-1.2455e-07
8.16498e-11
-6.6049e-09
2.64734e-08
8.16826e-11
-3.23058e-08
2.64734e-08
1.28132e-09
-3.23058e-08
4.92682e-08
1.28132e-09
-1.73764e-08
4.92682e-08
2.18324e-08
-1.73764e-08
-6.30929e-09
-1.9716e-06
2.44808e-06
9.00342e-08
-8.45855e-07
2.44808e-06
-4.92345e-07
-8.45855e-07
2.15336e-07
-4.92345e-07
5.77236e-07
2.15336e-07
-2.03845e-07
5.77236e-07
-3.60936e-07
-2.03845e-07
9.41289e-08
-3.60936e-07
9.76006e-08
9.41289e-08
-2.45223e-08
9.76006e-08
-6.6049e-09
-2.45223e-08
8.57064e-09
-6.6049e-09
2.64734e-08
8.57064e-09
-8.17488e-09
2.64735e-08
1.28132e-09
-8.17488e-09
-1.21172e-09
1.28132e-09
-1.73765e-08
-1.21172e-09
6.9554e-09
-1.73764e-08
-6.30929e-09
6.9554e-09
2.9291e-09
9.00337e-08
-8.45855e-07
1.36315e-06
-2.68409e-07
-8.45855e-07
2.15336e-07
-2.68409e-07
-6.31626e-08
2.15337e-07
-2.03844e-07
-6.31626e-08
-4.90481e-08
-2.03845e-07
9.41289e-08
-4.90481e-08
1.0527e-07
9.41289e-08
-2.45223e-08
1.0527e-07
-2.63472e-08
-2.45223e-08
8.57064e-09
-2.63472e-08
-1.59295e-08
8.57064e-09
-8.17488e-09
-1.59295e-08
-3.51711e-09
-8.17488e-09
-1.21172e-09
-3.51711e-09
2.20843e-10
-1.21172e-09
6.9554e-09
2.20843e-10
9.32147e-10
6.9554e-09
2.9291e-09
9.32147e-10
-2.64842e-10
1.36315e-06
-2.68409e-07
5.82232e-07
1.39218e-07
-2.68409e-07
-6.31626e-08
1.39218e-07
-6.8866e-08
-6.31626e-08
-4.90481e-08
-6.8866e-08
3.73405e-08
-4.90481e-08
1.0527e-07
3.73405e-08
1.41741e-08
1.0527e-07
-2.63472e-08
1.41741e-08
-6.57083e-09
-2.63472e-08
-1.59295e-08
-6.57083e-09
-3.00822e-09
-1.59295e-08
-3.51711e-09
-3.00822e-09
-7.7152e-10
-3.51711e-09
2.20843e-10
-7.7152e-10
1.43691e-09
2.20843e-10
9.32147e-10
1.43691e-09
-2.01355e-09
9.32148e-10
-2.64842e-10
-2.01355e-09
-1.23297e-09
-2.87641e-05
-1.00236e-05
2.75679e-05
2.0082e-06
-1.00236e-05
-3.81797e-05
2.0082e-06
-1.87824e-05
4.09593e-05
-2.87641e-05
-1.4934e-05
2.75679e-05
2.24871e-05
4.64797e-05
1.56471e-05
3.75367e-05
4.64797e-05
2.95507e-05
3.75367e-05
1.5559e-05
-1.71798e-05
-2.97277e-05
-3.81797e-05
-7.21251e-05
-2.97277e-05
2.24871e-05
-7.21251e-05
1.56471e-05
8.20502e-05
0.000221063
-9.93056e-06
-9.80556e-05
-9.93056e-06
-9.80556e-05
-2.87641e-05
-1.00236e-05
0.000221063
-1.71798e-05
-9.80556e-05
-2.09211e-05
-9.80556e-05
-2.09211e-05
-1.00236e-05
-3.81797e-05
0.00026448
-5.57054e-05
-5.1526e-05
0.000109074
-5.57053e-05
8.20503e-05
0.000109074
-9.93056e-06
0.000109074
-9.93056e-06
4.09593e-05
-2.87641e-05
-2.23528e-07
-5.20157e-06
2.95507e-05
1.2521e-05
-5.20157e-06
1.3618e-06
1.2521e-05
3.63196e-06
1.07031e-05
-1.56411e-05
9.87425e-06
2.09892e-05
9.87425e-06
2.09892e-05
2.24871e-05
4.64797e-05
-1.56411e-05
-2.23528e-07
2.09892e-05
1.17063e-05
2.09892e-05
1.17063e-05
4.64797e-05
2.95507e-05
7.56836e-05
0.000106846
-2.12448e-05
3.89287e-06
0.000106846
1.07031e-05
3.89287e-06
9.87425e-06
3.89287e-06
9.87425e-06
-2.97277e-05
2.24871e-05
-2.12448e-05
3.89287e-06
-1.71798e-05
-2.97277e-05
9.13615e-05
0.000338835
0.000350992
0.000853931
0.000338835
7.56836e-05
0.000853931
-2.12448e-05
0.000853931
-2.12448e-05
0.000221063
-1.71798e-05
0.000350992
0.000853931
8.20503e-05
0.000221063
0.00107218
-0.000542591
-0.000360565
0.000234619
-0.000542591
9.13615e-05
0.000234619
0.000350992
0.000234619
0.000350992
-5.57054e-05
8.20502e-05
-0.000360565
0.000234619
0.00026448
-5.57054e-05
-8.93697e-06
1.81345e-05
8.59946e-06
1.75901e-07
8.59946e-06
1.75901e-07
-2.23528e-07
-5.20157e-06
-3.3392e-05
-4.48684e-05
1.09871e-05
-7.43657e-05
-4.48684e-05
-8.93697e-06
-7.43657e-05
8.59946e-06
-7.43657e-05
8.59946e-06
-1.56411e-05
-2.23527e-07
1.09872e-05
-7.43657e-05
1.07031e-05
-1.56411e-05
-4.56618e-05
0.000214795
0.000130687
0.000296482
0.000214795
-3.3392e-05
0.000296482
1.09871e-05
0.000296482
1.09871e-05
0.000106846
1.07031e-05
0.000130687
0.000296482
7.56836e-05
0.000106846
-0.00139953
0.000225961
0.000466792
0.000253082
0.000225961
-4.56618e-05
0.000253082
0.000130687
0.000253082
0.000130687
0.000338835
7.56836e-05
0.000466792
0.000253082
9.13615e-05
0.000338835
0.00135619
0.000466792
-0.000542591
9.13615e-05
-0.00135434
0.00135619
0.00107218
-0.000542591
0.000207654
-0.000108482
0.000214795
-3.3392e-05
-0.00039721
0.000207654
-4.56618e-05
0.000214795
0.00160986
-0.00039721
0.000225961
-4.56618e-05
0.00413708
0.00160986
-0.00139953
0.000225961
0.00103044
0.000101203
0.00114016
6.51236e-05
0.000101203
6.17704e-06
6.51236e-05
4.25048e-05
6.17704e-06
1.30109e-06
4.25048e-05
-1.34896e-05
1.30109e-06
-5.10614e-06
-1.34896e-05
-2.88443e-06
-5.10614e-06
-2.58965e-06
-2.88443e-06
1.28436e-06
0.00114016
6.51236e-05
0.000813168
1.95184e-05
6.51236e-05
4.25048e-05
1.95184e-05
3.24603e-05
4.25048e-05
-1.34896e-05
3.24603e-05
-2.05353e-05
-1.34896e-05
-2.88443e-06
-2.05353e-05
1.50163e-05
-2.88443e-06
1.28436e-06
1.50163e-05
1.09082e-05
0.000813168
1.95184e-05
0.000274503
1.78594e-05
1.95184e-05
3.24603e-05
1.78594e-05
1.28282e-05
3.24603e-05
-2.05353e-05
1.28282e-05
-1.12789e-05
-2.05353e-05
1.50163e-05
-1.12789e-05
6.22872e-06
1.50163e-05
1.09082e-05
6.22872e-06
3.03898e-06
0.000274503
1.78594e-05
-8.63418e-06
5.4475e-06
1.78594e-05
1.28282e-05
5.4475e-06
4.28904e-06
1.28282e-05
-1.12789e-05
4.28904e-06
-9.72275e-07
-1.12789e-05
6.22872e-06
-9.72275e-07
-7.37267e-07
6.22872e-06
3.03898e-06
-7.37267e-07
3.98735e-07
-8.63418e-06
5.4475e-06
2.11377e-05
4.40731e-06
5.4475e-06
4.28904e-06
4.40731e-06
7.17628e-07
4.28904e-06
-9.72275e-07
7.17628e-07
-3.14783e-07
-9.72275e-07
-7.37267e-07